<?xml version="1.0" encoding="UTF-8"?>

<!-- generated on 2025-12-12T14:13:49.903644+05:30 by Eclipse SUMO sumo 1.25.0
<sumoConfiguration xmlns:xsi="http://www.w3.org/2001/XMLSchema-instance" xsi:noNamespaceSchemaLocation="http://sumo.dlr.de/xsd/sumoConfiguration.xsd">

    <input>
        <net-file value="map.net.xml"/>
        <route-files value="traffic.rou.xml"/>
        <additional-files value="traffic_sensors.add.xml"/>
    </input>

    <output>
        <queue-output value="queue.xml"/>
        <summary-output value="summary.xml"/>
        <tripinfo-output value="tripinfo.xml"/>
    </output>

    <time>
        <begin value="0"/>
        <end value="3600"/>
    </time>

</sumoConfiguration>
-->

<tripinfos xmlns:xsi="http://www.w3.org/2001/XMLSchema-instance" xsi:noNamespaceSchemaLocation="http://sumo.dlr.de/xsd/tripinfo_file.xsd">
    <tripinfo id="flow_1550214890_NB.0" depart="0.00" departLane="88291250#1_0" departPos="5.10" departSpeed="0.00" departDelay="0.00" arrival="158.00" arrivalLane="88291250#0_0" arrivalPos="11.74" arrivalSpeed="10.89" duration="158.00" routeLength="2206.45" waitingTime="0.00" waitingCount="0" stopTime="0.00" timeLoss="35.58" rerouteNo="0" devices="tripinfo_flow_1550214890_NB.0" vType="car" speedFactor="1.06" vaporized=""/>
    <tripinfo id="flow_1550214890_SB.1" depart="45.00" departLane="-88291250#2_0" departPos="5.10" departSpeed="0.00" departDelay="0.56" arrival="201.00" arrivalLane="-773828749_0" arrivalPos="78.30" arrivalSpeed="14.74" duration="156.00" routeLength="1895.60" waitingTime="0.00" waitingCount="0" stopTime="0.00" timeLoss="31.95" rerouteNo="0" devices="tripinfo_flow_1550214890_SB.1" vType="car" speedFactor="1.08" vaporized=""/>
    <tripinfo id="flow_1550214890_WB.2" depart="92.00" departLane="-141624560#0_0" departPos="5.10" departSpeed="0.00" departDelay="0.86" arrival="286.00" arrivalLane="-141624560#1_0" arrivalPos="37.54" arrivalSpeed="12.21" duration="194.00" routeLength="2012.30" waitingTime="10.00" waitingCount="2" stopTime="0.00" timeLoss="48.86" rerouteNo="0" devices="tripinfo_flow_1550214890_WB.2" vType="car" speedFactor="0.89" vaporized=""/>
    <tripinfo id="flow_1550214890_NB.1" depart="72.00" departLane="88291250#1_0" departPos="5.10" departSpeed="0.00" departDelay="0.00" arrival="373.00" arrivalLane="-773828749_0" arrivalPos="78.30" arrivalSpeed="10.93" duration="301.00" routeLength="2961.79" waitingTime="0.00" waitingCount="0" stopTime="0.00" timeLoss="56.68" rerouteNo="0" devices="tripinfo_flow_1550214890_NB.1" vType="car" speedFactor="0.83" vaporized=""/>
    <tripinfo id="flow_1550214890_NB.2" depart="144.00" departLane="88291250#1_0" departPos="5.10" departSpeed="0.00" departDelay="0.00" arrival="389.00" arrivalLane="-773828749_0" arrivalPos="78.30" arrivalSpeed="14.34" duration="245.00" routeLength="2878.18" waitingTime="3.00" waitingCount="1" stopTime="0.00" timeLoss="55.66" rerouteNo="0" devices="tripinfo_flow_1550214890_NB.2" vType="car" speedFactor="1.09" vaporized=""/>
    <tripinfo id="flow_1550214890_WB.4" depart="183.00" departLane="-141624560#0_0" departPos="5.10" departSpeed="0.00" departDelay="0.72" arrival="471.00" arrivalLane="-141624560#1_0" arrivalPos="37.54" arrivalSpeed="14.38" duration="288.00" routeLength="2865.98" waitingTime="43.00" waitingCount="3" stopTime="0.00" timeLoss="103.47" rerouteNo="0" devices="tripinfo_flow_1550214890_WB.4" vType="car" speedFactor="1.05" vaporized=""/>
    <tripinfo id="flow_1550214890_SB.3" depart="134.00" departLane="-88291250#2_0" departPos="5.10" departSpeed="0.00" departDelay="0.67" arrival="478.00" arrivalLane="1014074587#2_0" arrivalPos="7.46" arrivalSpeed="14.93" duration="344.00" routeLength="4720.86" waitingTime="12.00" waitingCount="2" stopTime="0.00" timeLoss="80.02" rerouteNo="0" devices="tripinfo_flow_1550214890_SB.3" vType="car" speedFactor="0.94" vaporized=""/>
    <tripinfo id="flow_1550214890_WB.6" depart="274.00" departLane="-141624560#0_0" departPos="5.10" departSpeed="0.00" departDelay="0.59" arrival="490.00" arrivalLane="-141624560#1_0" arrivalPos="37.54" arrivalSpeed="12.54" duration="216.00" routeLength="2858.13" waitingTime="0.00" waitingCount="0" stopTime="0.00" timeLoss="40.81" rerouteNo="0" devices="tripinfo_flow_1550214890_WB.6" vType="car" speedFactor="0.94" vaporized=""/>
    <tripinfo id="flow_1550214890_NB.5" depart="360.00" departLane="88291250#1_0" departPos="5.10" departSpeed="0.00" departDelay="0.00" arrival="552.00" arrivalLane="-773828749_0" arrivalPos="78.30" arrivalSpeed="13.19" duration="192.00" routeLength="1816.31" waitingTime="23.00" waitingCount="2" stopTime="0.00" timeLoss="60.31" rerouteNo="0" devices="tripinfo_flow_1550214890_NB.5" vType="car" speedFactor="0.97" vaporized=""/>
    <tripinfo id="flow_1550214890_WB.8" depart="369.00" departLane="-141624560#0_0" departPos="5.10" departSpeed="0.00" departDelay="4.45" arrival="552.00" arrivalLane="-141624560#1_0" arrivalPos="37.54" arrivalSpeed="11.79" duration="183.00" routeLength="1787.67" waitingTime="15.00" waitingCount="2" stopTime="0.00" timeLoss="51.25" rerouteNo="0" devices="tripinfo_flow_1550214890_WB.8" vType="car" speedFactor="0.89" vaporized=""/>
    <tripinfo id="flow_1550214890_SB.6" depart="267.00" departLane="-88291250#2_0" departPos="5.10" departSpeed="0.00" departDelay="0.34" arrival="563.00" arrivalLane="372292804_0" arrivalPos="27.67" arrivalSpeed="11.62" duration="296.00" routeLength="2901.03" waitingTime="20.00" waitingCount="1" stopTime="0.00" timeLoss="71.11" rerouteNo="0" devices="tripinfo_flow_1550214890_SB.6" vType="car" speedFactor="0.88" vaporized=""/>
    <tripinfo id="flow_1550214890_SB.5" depart="223.00" departLane="-88291250#2_0" departPos="5.10" departSpeed="0.00" departDelay="0.78" arrival="605.00" arrivalLane="-88291250#3_0" arrivalPos="139.01" arrivalSpeed="12.74" duration="382.00" routeLength="4016.83" waitingTime="27.00" waitingCount="3" stopTime="0.00" timeLoss="110.68" rerouteNo="0" devices="tripinfo_flow_1550214890_SB.5" vType="car" speedFactor="0.99" vaporized=""/>
    <tripinfo id="flow_1550214890_WB.11" depart="502.00" departLane="-141624560#0_0" departPos="5.10" departSpeed="0.00" departDelay="0.74" arrival="655.00" arrivalLane="-141624560#1_0" arrivalPos="37.54" arrivalSpeed="13.50" duration="153.00" routeLength="1931.91" waitingTime="0.00" waitingCount="0" stopTime="0.00" timeLoss="43.13" rerouteNo="0" devices="tripinfo_flow_1550214890_WB.11" vType="car" speedFactor="1.18" vaporized=""/>
    <tripinfo id="flow_1550214890_SB.10" depart="445.00" departLane="-88291250#2_0" departPos="5.10" departSpeed="0.00" departDelay="0.56" arrival="656.00" arrivalLane="-88291250#3_0" arrivalPos="139.01" arrivalSpeed="12.09" duration="211.00" routeLength="1878.11" waitingTime="6.00" waitingCount="1" stopTime="0.00" timeLoss="58.33" rerouteNo="0" devices="tripinfo_flow_1550214890_SB.10" vType="car" speedFactor="0.95" vaporized=""/>
    <tripinfo id="flow_1550214890_WB.3" depart="137.00" departLane="-141624560#0_0" departPos="5.10" departSpeed="0.00" departDelay="0.29" arrival="686.00" arrivalLane="1166318930#3_0" arrivalPos="21.51" arrivalSpeed="11.77" duration="549.00" routeLength="8796.22" waitingTime="23.00" waitingCount="2" stopTime="0.00" timeLoss="81.11" rerouteNo="0" devices="tripinfo_flow_1550214890_WB.3" vType="car" speedFactor="0.86" vaporized=""/>
    <tripinfo id="flow_1550214890_SB.14" depart="623.00" departLane="-88291250#2_0" departPos="5.10" departSpeed="0.00" departDelay="0.78" arrival="693.00" arrivalLane="-88291250#3_0" arrivalPos="139.01" arrivalSpeed="16.33" duration="70.00" routeLength="807.57" waitingTime="0.00" waitingCount="0" stopTime="0.00" timeLoss="17.96" rerouteNo="0" devices="tripinfo_flow_1550214890_SB.14" vType="car" speedFactor="1.18" vaporized=""/>
    <tripinfo id="flow_1550214890_NB.4" depart="288.00" departLane="88291250#1_0" departPos="5.10" departSpeed="0.00" departDelay="0.00" arrival="703.00" arrivalLane="88291250#0_0" arrivalPos="11.74" arrivalSpeed="8.81" duration="415.00" routeLength="4790.24" waitingTime="28.00" waitingCount="4" stopTime="0.00" timeLoss="112.63" rerouteNo="0" devices="tripinfo_flow_1550214890_NB.4" vType="car" speedFactor="0.94" vaporized=""/>
    <tripinfo id="flow_1550214890_SB.0" depart="0.00" departLane="-88291250#2_0" departPos="5.10" departSpeed="0.00" departDelay="0.00" arrival="712.00" arrivalLane="1166318930#3_0" arrivalPos="21.51" arrivalSpeed="12.08" duration="712.00" routeLength="9717.82" waitingTime="25.00" waitingCount="1" stopTime="0.00" timeLoss="130.27" rerouteNo="0" devices="tripinfo_flow_1550214890_SB.0" vType="car" speedFactor="0.94" vaporized=""/>
    <tripinfo id="flow_1550214890_SB.12" depart="534.00" departLane="-88291250#2_0" departPos="5.10" departSpeed="0.00" departDelay="0.67" arrival="738.00" arrivalLane="372292804_0" arrivalPos="27.67" arrivalSpeed="13.35" duration="204.00" routeLength="2088.90" waitingTime="11.00" waitingCount="2" stopTime="0.00" timeLoss="62.84" rerouteNo="0" devices="tripinfo_flow_1550214890_SB.12" vType="car" speedFactor="1.01" vaporized=""/>
    <tripinfo id="flow_1550214890_NB.7" depart="504.00" departLane="88291250#1_0" departPos="5.10" departSpeed="0.00" departDelay="0.00" arrival="743.00" arrivalLane="88291250#0_0" arrivalPos="11.74" arrivalSpeed="9.55" duration="239.00" routeLength="2725.99" waitingTime="41.00" waitingCount="1" stopTime="0.00" timeLoss="79.70" rerouteNo="0" devices="tripinfo_flow_1550214890_NB.7" vType="car" speedFactor="1.15" vaporized=""/>
    <tripinfo id="flow_1550214890_SB.8" depart="356.00" departLane="-88291250#2_0" departPos="5.10" departSpeed="0.00" departDelay="0.45" arrival="750.00" arrivalLane="1030097810_0" arrivalPos="25.79" arrivalSpeed="15.57" duration="394.00" routeLength="5781.56" waitingTime="0.00" waitingCount="0" stopTime="0.00" timeLoss="68.29" rerouteNo="0" devices="tripinfo_flow_1550214890_SB.8" vType="car" speedFactor="1.01" vaporized=""/>
    <tripinfo id="flow_1550214890_NB.9" depart="648.00" departLane="88291250#1_0" departPos="5.10" departSpeed="0.00" departDelay="0.00" arrival="767.00" arrivalLane="88291250#0_0" arrivalPos="11.74" arrivalSpeed="8.71" duration="119.00" routeLength="1160.51" waitingTime="0.00" waitingCount="0" stopTime="0.00" timeLoss="22.77" rerouteNo="0" devices="tripinfo_flow_1550214890_NB.9" vType="car" speedFactor="0.90" vaporized=""/>
    <tripinfo id="flow_1550214890_WB.15" depart="684.00" departLane="-141624560#0_0" departPos="5.10" departSpeed="0.00" departDelay="0.46" arrival="795.00" arrivalLane="-141624560#1_0" arrivalPos="37.54" arrivalSpeed="12.71" duration="111.00" routeLength="1124.71" waitingTime="1.00" waitingCount="1" stopTime="0.00" timeLoss="21.77" rerouteNo="0" devices="tripinfo_flow_1550214890_WB.15" vType="car" speedFactor="0.96" vaporized=""/>
    <tripinfo id="flow_1550214890_SB.17" depart="756.00" departLane="-88291250#2_0" departPos="5.10" departSpeed="0.00" departDelay="0.45" arrival="820.00" arrivalLane="-88291250#3_0" arrivalPos="139.01" arrivalSpeed="14.14" duration="64.00" routeLength="735.13" waitingTime="0.00" waitingCount="0" stopTime="0.00" timeLoss="13.12" rerouteNo="0" devices="tripinfo_flow_1550214890_SB.17" vType="car" speedFactor="1.09" vaporized=""/>
    <tripinfo id="flow_1550214890_NB.8" depart="576.00" departLane="88291250#1_0" departPos="5.10" departSpeed="0.00" departDelay="0.00" arrival="873.00" arrivalLane="88291250#0_0" arrivalPos="11.74" arrivalSpeed="10.35" duration="297.00" routeLength="2833.88" waitingTime="41.00" waitingCount="1" stopTime="0.00" timeLoss="103.54" rerouteNo="0" devices="tripinfo_flow_1550214890_NB.8" vType="car" speedFactor="0.99" vaporized=""/>
    <tripinfo id="flow_1550214890_WB.14" depart="638.00" departLane="-141624560#0_0" departPos="5.10" departSpeed="0.00" departDelay="0.03" arrival="874.00" arrivalLane="1014074587#2_0" arrivalPos="7.46" arrivalSpeed="11.07" duration="236.00" routeLength="2849.09" waitingTime="3.00" waitingCount="1" stopTime="0.00" timeLoss="63.60" rerouteNo="0" devices="tripinfo_flow_1550214890_WB.14" vType="car" speedFactor="1.10" vaporized=""/>
    <tripinfo id="flow_1550214890_WB.17" depart="775.00" departLane="-141624560#0_0" departPos="5.10" departSpeed="0.00" departDelay="0.33" arrival="913.00" arrivalLane="-141624560#1_0" arrivalPos="37.54" arrivalSpeed="13.45" duration="138.00" routeLength="1160.58" waitingTime="19.00" waitingCount="2" stopTime="0.00" timeLoss="51.23" rerouteNo="0" devices="tripinfo_flow_1550214890_WB.17" vType="car" speedFactor="1.00" vaporized=""/>
    <tripinfo id="flow_1550214890_WB.16" depart="730.00" departLane="-141624560#0_0" departPos="5.10" departSpeed="0.00" departDelay="0.90" arrival="928.00" arrivalLane="-141624560#1_0" arrivalPos="37.54" arrivalSpeed="13.78" duration="198.00" routeLength="2083.16" waitingTime="5.00" waitingCount="2" stopTime="0.00" timeLoss="63.03" rerouteNo="0" devices="tripinfo_flow_1550214890_WB.16" vType="car" speedFactor="1.04" vaporized=""/>
    <tripinfo id="flow_1550214890_WB.10" depart="456.00" departLane="-141624560#0_0" departPos="5.10" departSpeed="0.00" departDelay="0.31" arrival="962.00" arrivalLane="400916835_0" arrivalPos="20.21" arrivalSpeed="10.26" duration="506.00" routeLength="5220.48" waitingTime="133.00" waitingCount="5" stopTime="0.00" timeLoss="228.03" rerouteNo="0" devices="tripinfo_flow_1550214890_WB.10" vType="car" speedFactor="1.13" vaporized=""/>
    <tripinfo id="flow_1550214890_NB.12" depart="864.00" departLane="88291250#1_0" departPos="5.10" departSpeed="0.00" departDelay="0.00" arrival="1025.00" arrivalLane="-773828749_0" arrivalPos="78.30" arrivalSpeed="15.95" duration="161.00" routeLength="1337.42" waitingTime="40.00" waitingCount="1" stopTime="0.00" timeLoss="75.39" rerouteNo="0" devices="tripinfo_flow_1550214890_NB.12" vType="car" speedFactor="1.17" vaporized=""/>
    <tripinfo id="flow_1550214890_NB.6" depart="432.00" departLane="88291250#1_0" departPos="5.10" departSpeed="0.00" departDelay="0.00" arrival="1040.00" arrivalLane="1014074579#1_0" arrivalPos="88.60" arrivalSpeed="13.22" duration="608.00" routeLength="6310.88" waitingTime="105.00" waitingCount="6" stopTime="0.00" timeLoss="209.83" rerouteNo="0" devices="tripinfo_flow_1550214890_NB.6" vType="car" speedFactor="0.92" vaporized=""/>
    <tripinfo id="flow_1550214890_SB.21" depart="934.00" departLane="-88291250#2_0" departPos="5.10" departSpeed="0.00" departDelay="0.68" arrival="1041.00" arrivalLane="-88291250#3_0" arrivalPos="139.01" arrivalSpeed="13.53" duration="107.00" routeLength="1131.93" waitingTime="0.00" waitingCount="0" stopTime="0.00" timeLoss="19.64" rerouteNo="0" devices="tripinfo_flow_1550214890_SB.21" vType="car" speedFactor="1.00" vaporized=""/>
    <tripinfo id="flow_1550214890_SB.4" depart="178.00" departLane="-88291250#2_0" departPos="5.10" departSpeed="0.00" departDelay="0.22" arrival="1116.00" arrivalLane="1166318930#3_0" arrivalPos="21.51" arrivalSpeed="13.09" duration="938.00" routeLength="14179.99" waitingTime="31.00" waitingCount="2" stopTime="0.00" timeLoss="178.57" rerouteNo="0" devices="tripinfo_flow_1550214890_SB.4" vType="car" speedFactor="1.03" vaporized=""/>
    <tripinfo id="flow_1550214890_WB.21" depart="957.00" departLane="-141624560#0_0" departPos="5.10" departSpeed="0.00" departDelay="0.05" arrival="1122.00" arrivalLane="-141624560#1_0" arrivalPos="37.54" arrivalSpeed="15.74" duration="165.00" routeLength="1512.95" waitingTime="29.00" waitingCount="2" stopTime="0.00" timeLoss="66.55" rerouteNo="0" devices="tripinfo_flow_1550214890_WB.21" vType="car" speedFactor="1.14" vaporized=""/>
    <tripinfo id="flow_1550214890_SB.23" depart="1023.00" departLane="-88291250#2_0" departPos="5.10" departSpeed="0.00" departDelay="0.79" arrival="1134.00" arrivalLane="-773828749_0" arrivalPos="78.30" arrivalSpeed="15.19" duration="111.00" routeLength="1267.70" waitingTime="0.00" waitingCount="0" stopTime="0.00" timeLoss="26.34" rerouteNo="0" devices="tripinfo_flow_1550214890_SB.23" vType="car" speedFactor="1.12" vaporized=""/>
    <tripinfo id="flow_1550214890_WB.12" depart="547.00" departLane="-141624560#0_0" departPos="5.10" departSpeed="0.00" departDelay="0.17" arrival="1144.00" arrivalLane="218652269_1" arrivalPos="1694.31" arrivalSpeed="27.68" duration="597.00" routeLength="7707.87" waitingTime="81.00" waitingCount="2" stopTime="0.00" timeLoss="200.31" rerouteNo="0" devices="tripinfo_flow_1550214890_WB.12" vType="car" speedFactor="1.17" vaporized=""/>
    <tripinfo id="flow_1550214890_SB.9" depart="400.00" departLane="-88291250#2_0" departPos="5.10" departSpeed="0.00" departDelay="0.00" arrival="1152.00" arrivalLane="218652269_0" arrivalPos="1694.31" arrivalSpeed="19.27" duration="752.00" routeLength="11402.08" waitingTime="50.00" waitingCount="2" stopTime="0.00" timeLoss="115.76" rerouteNo="0" devices="tripinfo_flow_1550214890_SB.9" vType="car" speedFactor="0.83" vaporized=""/>
    <tripinfo id="flow_1550214890_SB.7" depart="312.00" departLane="-88291250#2_0" departPos="5.10" departSpeed="0.00" departDelay="0.89" arrival="1165.00" arrivalLane="1166318930#3_0" arrivalPos="21.51" arrivalSpeed="11.65" duration="853.00" routeLength="13329.69" waitingTime="127.00" waitingCount="4" stopTime="0.00" timeLoss="253.75" rerouteNo="0" devices="tripinfo_flow_1550214890_SB.7" vType="car" speedFactor="1.16" vaporized=""/>
    <tripinfo id="flow_1550214890_NB.13" depart="936.00" departLane="88291250#1_0" departPos="5.10" departSpeed="0.00" departDelay="0.00" arrival="1173.00" arrivalLane="1014074587#8_0" arrivalPos="7.82" arrivalSpeed="12.08" duration="237.00" routeLength="1824.55" waitingTime="45.00" waitingCount="1" stopTime="0.00" timeLoss="99.81" rerouteNo="0" devices="tripinfo_flow_1550214890_NB.13" vType="car" speedFactor="0.90" vaporized=""/>
    <tripinfo id="flow_1550214890_NB.14" depart="1008.00" departLane="88291250#1_0" departPos="5.10" departSpeed="0.00" departDelay="0.00" arrival="1176.00" arrivalLane="88291250#0_0" arrivalPos="11.74" arrivalSpeed="7.96" duration="168.00" routeLength="2072.69" waitingTime="0.00" waitingCount="0" stopTime="0.00" timeLoss="37.36" rerouteNo="0" devices="tripinfo_flow_1550214890_NB.14" vType="car" speedFactor="1.08" vaporized=""/>
    <tripinfo id="flow_1550214890_SB.22" depart="978.00" departLane="-88291250#2_0" departPos="5.10" departSpeed="0.00" departDelay="0.23" arrival="1196.00" arrivalLane="372292804_0" arrivalPos="27.67" arrivalSpeed="12.44" duration="218.00" routeLength="2230.27" waitingTime="4.00" waitingCount="2" stopTime="0.00" timeLoss="60.44" rerouteNo="0" devices="tripinfo_flow_1550214890_SB.22" vType="car" speedFactor="1.02" vaporized=""/>
    <tripinfo id="flow_1550214890_WB.23" depart="1049.00" departLane="-141624560#0_0" departPos="5.10" departSpeed="0.00" departDelay="0.91" arrival="1212.00" arrivalLane="-773828749_0" arrivalPos="78.30" arrivalSpeed="13.80" duration="163.00" routeLength="1404.02" waitingTime="21.00" waitingCount="3" stopTime="0.00" timeLoss="59.81" rerouteNo="0" devices="tripinfo_flow_1550214890_WB.23" vType="car" speedFactor="1.02" vaporized=""/>
    <tripinfo id="flow_1550214890_SB.16" depart="712.00" departLane="-88291250#2_0" departPos="5.10" departSpeed="0.00" departDelay="0.90" arrival="1236.00" arrivalLane="387841627#1_0" arrivalPos="58.70" arrivalSpeed="20.64" duration="524.00" routeLength="6917.67" waitingTime="23.00" waitingCount="2" stopTime="0.00" timeLoss="136.91" rerouteNo="0" devices="tripinfo_flow_1550214890_SB.16" vType="car" speedFactor="1.09" vaporized=""/>
    <tripinfo id="flow_1550214890_WB.19" depart="866.00" departLane="-141624560#0_0" departPos="5.10" departSpeed="0.00" departDelay="0.19" arrival="1295.00" arrivalLane="218652269_0" arrivalPos="1694.31" arrivalSpeed="23.92" duration="429.00" routeLength="9171.14" waitingTime="17.00" waitingCount="1" stopTime="0.00" timeLoss="50.97" rerouteNo="0" devices="tripinfo_flow_1550214890_WB.19" vType="car" speedFactor="1.02" vaporized=""/>
    <tripinfo id="flow_1550214890_WB.7" depart="319.00" departLane="-141624560#0_0" departPos="5.10" departSpeed="0.00" departDelay="0.02" arrival="1373.00" arrivalLane="1166318930#3_0" arrivalPos="21.51" arrivalSpeed="13.40" duration="1054.00" routeLength="14862.12" waitingTime="12.00" waitingCount="2" stopTime="0.00" timeLoss="134.87" rerouteNo="0" devices="tripinfo_flow_1550214890_WB.7" vType="car" speedFactor="1.02" vaporized=""/>
    <tripinfo id="flow_1550214890_WB.9" depart="411.00" departLane="-141624560#0_0" departPos="5.10" departSpeed="0.00" departDelay="0.88" arrival="1389.00" arrivalLane="218652299#2_1" arrivalPos="7.68" arrivalSpeed="7.32" duration="978.00" routeLength="9044.56" waitingTime="117.00" waitingCount="5" stopTime="0.00" timeLoss="261.51" rerouteNo="0" devices="tripinfo_flow_1550214890_WB.9" vType="car" speedFactor="0.87" vaporized=""/>
    <tripinfo id="flow_1550214890_NB.18" depart="1296.00" departLane="88291250#1_0" departPos="5.10" departSpeed="0.00" departDelay="0.00" arrival="1415.00" arrivalLane="372292804_0" arrivalPos="27.67" arrivalSpeed="12.82" duration="119.00" routeLength="855.57" waitingTime="31.00" waitingCount="1" stopTime="0.00" timeLoss="54.21" rerouteNo="0" devices="tripinfo_flow_1550214890_NB.18" vType="car" speedFactor="0.98" vaporized=""/>
    <tripinfo id="flow_1550214890_SB.27" depart="1200.00" departLane="-88291250#2_0" departPos="5.10" departSpeed="0.00" departDelay="0.01" arrival="1418.00" arrivalLane="1166318930#3_0" arrivalPos="21.51" arrivalSpeed="12.74" duration="218.00" routeLength="2201.23" waitingTime="34.00" waitingCount="2" stopTime="0.00" timeLoss="74.62" rerouteNo="0" devices="tripinfo_flow_1550214890_SB.27" vType="car" speedFactor="0.97" vaporized=""/>
    <tripinfo id="flow_1550214890_SB.30" depart="1334.00" departLane="-88291250#2_0" departPos="5.10" departSpeed="0.00" departDelay="0.68" arrival="1426.00" arrivalLane="-88291250#3_0" arrivalPos="139.01" arrivalSpeed="14.69" duration="92.00" routeLength="980.94" waitingTime="0.00" waitingCount="0" stopTime="0.00" timeLoss="22.61" rerouteNo="0" devices="tripinfo_flow_1550214890_SB.30" vType="car" speedFactor="1.09" vaporized=""/>
    <tripinfo id="flow_1550214890_WB.22" depart="1003.00" departLane="-141624560#0_0" departPos="5.10" departSpeed="0.00" departDelay="0.48" arrival="1484.00" arrivalLane="1166318930#3_0" arrivalPos="21.51" arrivalSpeed="11.49" duration="481.00" routeLength="8260.47" waitingTime="39.00" waitingCount="1" stopTime="0.00" timeLoss="95.05" rerouteNo="0" devices="tripinfo_flow_1550214890_WB.22" vType="car" speedFactor="0.97" vaporized=""/>
    <tripinfo id="flow_1550214890_WB.13" depart="593.00" departLane="-141624560#0_0" departPos="5.10" departSpeed="0.00" departDelay="0.60" arrival="1508.00" arrivalLane="1166318930#3_0" arrivalPos="21.51" arrivalSpeed="12.14" duration="915.00" routeLength="13026.12" waitingTime="62.00" waitingCount="4" stopTime="0.00" timeLoss="198.71" rerouteNo="0" devices="tripinfo_flow_1550214890_WB.13" vType="car" speedFactor="0.97" vaporized=""/>
    <tripinfo id="flow_1550214890_WB.18" depart="821.00" departLane="-141624560#0_0" departPos="5.10" departSpeed="0.00" departDelay="0.76" arrival="1590.00" arrivalLane="-141624560#1_0" arrivalPos="37.54" arrivalSpeed="11.52" duration="769.00" routeLength="8167.05" waitingTime="0.00" waitingCount="0" stopTime="0.00" timeLoss="113.54" rerouteNo="0" devices="tripinfo_flow_1550214890_WB.18" vType="car" speedFactor="0.85" vaporized=""/>
    <tripinfo id="flow_1550214890_SB.28" depart="1245.00" departLane="-88291250#2_0" departPos="5.10" departSpeed="0.00" departDelay="0.57" arrival="1617.00" arrivalLane="1014074587#2_0" arrivalPos="7.46" arrivalSpeed="11.51" duration="372.00" routeLength="3899.10" waitingTime="3.00" waitingCount="1" stopTime="0.00" timeLoss="82.96" rerouteNo="0" devices="tripinfo_flow_1550214890_SB.28" vType="car" speedFactor="0.96" vaporized=""/>
    <tripinfo id="flow_1550214890_WB.28" depart="1276.00" departLane="-141624560#0_0" departPos="5.10" departSpeed="0.00" departDelay="0.07" arrival="1631.00" arrivalLane="1014074587#2_0" arrivalPos="7.46" arrivalSpeed="16.54" duration="355.00" routeLength="3335.13" waitingTime="63.00" waitingCount="6" stopTime="0.00" timeLoss="134.89" rerouteNo="0" devices="tripinfo_flow_1550214890_WB.28" vType="car" speedFactor="0.98" vaporized=""/>
    <tripinfo id="flow_1550214890_WB.25" depart="1140.00" departLane="-141624560#0_0" departPos="5.10" departSpeed="0.00" departDelay="0.77" arrival="1649.00" arrivalLane="-141624560#1_0" arrivalPos="37.54" arrivalSpeed="12.02" duration="509.00" routeLength="8082.22" waitingTime="57.00" waitingCount="3" stopTime="0.00" timeLoss="112.80" rerouteNo="0" devices="tripinfo_flow_1550214890_WB.25" vType="car" speedFactor="0.91" vaporized=""/>
    <tripinfo id="flow_1550214890_WB.33" depart="1504.00" departLane="-141624560#0_0" departPos="5.10" departSpeed="0.00" departDelay="0.22" arrival="1657.00" arrivalLane="-141624560#1_0" arrivalPos="37.54" arrivalSpeed="13.63" duration="153.00" routeLength="1736.52" waitingTime="2.00" waitingCount="1" stopTime="0.00" timeLoss="38.29" rerouteNo="0" devices="tripinfo_flow_1550214890_WB.33" vType="car" speedFactor="1.01" vaporized=""/>
    <tripinfo id="flow_1550214890_SB.13" depart="578.00" departLane="-88291250#2_0" departPos="5.10" departSpeed="0.00" departDelay="0.23" arrival="1659.00" arrivalLane="-773828749_0" arrivalPos="78.30" arrivalSpeed="14.16" duration="1081.00" routeLength="14999.98" waitingTime="81.00" waitingCount="4" stopTime="0.00" timeLoss="259.35" rerouteNo="0" devices="tripinfo_flow_1550214890_SB.13" vType="car" speedFactor="1.02" vaporized=""/>
    <tripinfo id="flow_1550214890_SB.29" depart="1289.00" departLane="-88291250#2_0" departPos="5.10" departSpeed="0.00" departDelay="0.12" arrival="1675.00" arrivalLane="-773828749_0" arrivalPos="78.30" arrivalSpeed="13.12" duration="386.00" routeLength="4585.32" waitingTime="21.00" waitingCount="2" stopTime="0.00" timeLoss="106.48" rerouteNo="0" devices="tripinfo_flow_1550214890_SB.29" vType="car" speedFactor="1.03" vaporized=""/>
    <tripinfo id="flow_1550214890_NB.15" depart="1080.00" departLane="88291250#1_0" departPos="5.10" departSpeed="0.00" departDelay="0.00" arrival="1694.00" arrivalLane="1166318930#3_0" arrivalPos="21.51" arrivalSpeed="12.04" duration="614.00" routeLength="9633.73" waitingTime="1.00" waitingCount="1" stopTime="0.00" timeLoss="96.44" rerouteNo="0" devices="tripinfo_flow_1550214890_NB.15" vType="car" speedFactor="0.94" vaporized=""/>
    <tripinfo id="flow_1550214890_WB.29" depart="1322.00" departLane="-141624560#0_0" departPos="5.10" departSpeed="0.00" departDelay="0.50" arrival="1710.00" arrivalLane="-141624560#1_0" arrivalPos="37.54" arrivalSpeed="13.31" duration="388.00" routeLength="3687.00" waitingTime="81.00" waitingCount="3" stopTime="0.00" timeLoss="167.29" rerouteNo="0" devices="tripinfo_flow_1550214890_WB.29" vType="car" speedFactor="1.01" vaporized=""/>
    <tripinfo id="flow_1550214890_WB.35" depart="1595.00" departLane="-141624560#0_0" departPos="5.10" departSpeed="0.00" departDelay="0.08" arrival="1734.00" arrivalLane="218652269_0" arrivalPos="1694.31" arrivalSpeed="26.51" duration="139.00" routeLength="2722.93" waitingTime="10.00" waitingCount="1" stopTime="0.00" timeLoss="27.55" rerouteNo="0" devices="tripinfo_flow_1550214890_WB.35" vType="car" speedFactor="1.09" vaporized=""/>
    <tripinfo id="flow_1550214890_SB.37" depart="1645.00" departLane="-88291250#2_0" departPos="5.10" departSpeed="0.00" departDelay="0.57" arrival="1755.00" arrivalLane="-773828749_0" arrivalPos="78.30" arrivalSpeed="11.65" duration="110.00" routeLength="1182.38" waitingTime="0.00" waitingCount="0" stopTime="0.00" timeLoss="24.03" rerouteNo="0" devices="tripinfo_flow_1550214890_SB.37" vType="car" speedFactor="0.91" vaporized=""/>
    <tripinfo id="flow_1550214890_WB.30" depart="1368.00" departLane="-141624560#0_0" departPos="5.10" departSpeed="0.00" departDelay="0.93" arrival="1762.00" arrivalLane="-141624560#1_0" arrivalPos="37.54" arrivalSpeed="13.91" duration="394.00" routeLength="5302.72" waitingTime="0.00" waitingCount="0" stopTime="0.00" timeLoss="70.93" rerouteNo="0" devices="tripinfo_flow_1550214890_WB.30" vType="car" speedFactor="1.03" vaporized=""/>
    <tripinfo id="flow_1550214890_SB.34" depart="1512.00" departLane="-88291250#2_0" departPos="5.10" departSpeed="0.00" departDelay="0.90" arrival="1767.00" arrivalLane="-773828749_0" arrivalPos="78.30" arrivalSpeed="13.07" duration="255.00" routeLength="2611.38" waitingTime="45.00" waitingCount="4" stopTime="0.00" timeLoss="93.09" rerouteNo="0" devices="tripinfo_flow_1550214890_SB.34" vType="car" speedFactor="1.02" vaporized=""/>
    <tripinfo id="flow_1550214890_WB.32" depart="1459.00" departLane="-141624560#0_0" departPos="5.10" departSpeed="0.00" departDelay="0.79" arrival="1784.00" arrivalLane="-141624560#1_0" arrivalPos="37.54" arrivalSpeed="12.80" duration="325.00" routeLength="3827.50" waitingTime="33.00" waitingCount="1" stopTime="0.00" timeLoss="77.10" rerouteNo="0" devices="tripinfo_flow_1550214890_WB.32" vType="car" speedFactor="1.00" vaporized=""/>
    <tripinfo id="flow_1550214890_WB.38" depart="1733.00" departLane="-141624560#0_0" departPos="5.10" departSpeed="0.00" departDelay="1.38" arrival="1802.00" arrivalLane="-141624560#1_0" arrivalPos="37.54" arrivalSpeed="12.40" duration="69.00" routeLength="700.36" waitingTime="0.00" waitingCount="0" stopTime="0.00" timeLoss="13.58" rerouteNo="0" devices="tripinfo_flow_1550214890_WB.38" vType="car" speedFactor="0.97" vaporized=""/>