<?xml version="1.0" encoding="UTF-8"?>

<!-- generated on 2025-12-08T17:44:50.943810+05:30 by Eclipse SUMO GUI 1.25.0
<sumoConfiguration xmlns:xsi="http://www.w3.org/2001/XMLSchema-instance" xsi:noNamespaceSchemaLocation="http://sumo.dlr.de/xsd/sumoConfiguration.xsd">

    <input>
        <net-file value="map.net.xml"/>
        <route-files value="traffic.rou.xml"/>
        <additional-files value="traffic_sensors.add.xml"/>
    </input>

    <output>
        <summary-output value="summary.xml"/>
        <tripinfo-output value="tripinfo.xml"/>
    </output>

    <time>
        <begin value="0"/>
        <end value="3600"/>
    </time>

</sumoConfiguration>
-->

<tripinfos xmlns:xsi="http://www.w3.org/2001/XMLSchema-instance" xsi:noNamespaceSchemaLocation="http://sumo.dlr.de/xsd/tripinfo_file.xsd">
    <tripinfo id="flow_cluster_1024122102_1024122804_1025562933_1025563079_#8more_SB.1" depart="46.00" departLane="238694432#5_0" departPos="5.10" departSpeed="0.00" departDelay="42.11" arrival="86.00" arrivalLane="1166318930#3_0" arrivalPos="21.51" arrivalSpeed="13.46" duration="40.00" routeLength="540.25" waitingTime="0.00" waitingCount="0" stopTime="0.00" timeLoss="10.97" rerouteNo="0" devices="tripinfo_flow_cluster_1024122102_1024122804_1025562933_1025563079_#8more_SB.1" vType="car" speedFactor="1.05" vaporized=""/>
    <tripinfo id="flow_cluster_1024122102_1024122804_1025562933_1025563079_#8more_WB.2" depart="12.00" departLane="218652294#0_0" departPos="5.10" departSpeed="0.00" departDelay="0.57" arrival="92.00" arrivalLane="218652269_0" arrivalPos="1694.31" arrivalSpeed="26.65" duration="80.00" routeLength="1968.69" waitingTime="0.00" waitingCount="0" stopTime="0.00" timeLoss="7.67" rerouteNo="0" devices="tripinfo_flow_cluster_1024122102_1024122804_1025562933_1025563079_#8more_WB.2" vType="car" speedFactor="1.12" vaporized=""/>
    <tripinfo id="flow_cluster_1024122102_1024122804_1025562933_1025563079_#8more_WB.1" depart="6.00" departLane="218652294#0_0" departPos="5.10" departSpeed="0.00" departDelay="0.29" arrival="99.00" arrivalLane="218652269_0" arrivalPos="1694.31" arrivalSpeed="21.80" duration="93.00" routeLength="1968.69" waitingTime="0.00" waitingCount="0" stopTime="0.00" timeLoss="7.31" rerouteNo="0" devices="tripinfo_flow_cluster_1024122102_1024122804_1025562933_1025563079_#8more_WB.1" vType="car" speedFactor="0.94" vaporized=""/>
    <tripinfo id="flow_cluster_1024122102_1024122804_1025562933_1025563079_#8more_WB.3" depart="18.00" departLane="218652294#0_0" departPos="5.10" departSpeed="0.00" departDelay="0.86" arrival="106.00" arrivalLane="218652269_0" arrivalPos="1694.31" arrivalSpeed="24.89" duration="88.00" routeLength="1968.69" waitingTime="0.00" waitingCount="0" stopTime="0.00" timeLoss="8.46" rerouteNo="0" devices="tripinfo_flow_cluster_1024122102_1024122804_1025562933_1025563079_#8more_WB.3" vType="car" speedFactor="1.02" vaporized=""/>
    <tripinfo id="flow_cluster_1024122102_1024122804_1025562933_1025563079_#8more_NB.1" depart="4.00" departLane="218652254#1_0" departPos="0.20" departSpeed="0.00" departDelay="0.15" arrival="115.00" arrivalLane="1166318930#3_0" arrivalPos="21.51" arrivalSpeed="11.23" duration="111.00" routeLength="510.89" waitingTime="73.00" waitingCount="1" stopTime="0.00" timeLoss="79.04" rerouteNo="0" devices="tripinfo_flow_cluster_1024122102_1024122804_1025562933_1025563079_#8more_NB.1" vType="car" speedFactor="0.83" vaporized=""/>
    <tripinfo id="flow_cluster_1024122102_1024122804_1025562933_1025563079_#8more_SB.0" depart="0.00" departLane="238694432#5_0" departPos="5.10" departSpeed="0.00" departDelay="0.00" arrival="131.00" arrivalLane="218652269_0" arrivalPos="1694.31" arrivalSpeed="23.74" duration="131.00" routeLength="1948.54" waitingTime="40.00" waitingCount="1" stopTime="0.00" timeLoss="51.02" rerouteNo="0" devices="tripinfo_flow_cluster_1024122102_1024122804_1025562933_1025563079_#8more_SB.0" vType="car" speedFactor="1.01" vaporized=""/>
    <tripinfo id="flow_cluster_1024122102_1024122804_1025562933_1025563079_#8more_WB.15" depart="111.00" departLane="218652294#0_0" departPos="5.10" departSpeed="0.00" departDelay="25.29" arrival="162.00" arrivalLane="1166318930#3_0" arrivalPos="21.51" arrivalSpeed="12.20" duration="51.00" routeLength="648.89" waitingTime="0.00" waitingCount="0" stopTime="0.00" timeLoss="16.12" rerouteNo="0" devices="tripinfo_flow_cluster_1024122102_1024122804_1025562933_1025563079_#8more_WB.15" vType="car" speedFactor="1.09" vaporized=""/>
    <tripinfo id="flow_cluster_1024122102_1024122804_1025562933_1025563079_#8more_SB.8" depart="65.00" departLane="238694432#5_0" departPos="5.10" departSpeed="0.00" departDelay="33.90" arrival="176.00" arrivalLane="1166318930#3_0" arrivalPos="21.51" arrivalSpeed="14.07" duration="111.00" routeLength="1435.61" waitingTime="0.00" waitingCount="0" stopTime="0.00" timeLoss="17.36" rerouteNo="0" devices="tripinfo_flow_cluster_1024122102_1024122804_1025562933_1025563079_#8more_SB.8" vType="car" speedFactor="1.02" vaporized=""/>
    <tripinfo id="flow_cluster_1024122102_1024122804_1025562933_1025563079_#8more_SB.7" depart="62.00" departLane="238694432#5_0" departPos="5.10" departSpeed="0.00" departDelay="34.79" arrival="179.00" arrivalLane="-773828749_0" arrivalPos="78.30" arrivalSpeed="15.20" duration="117.00" routeLength="1271.54" waitingTime="7.00" waitingCount="1" stopTime="0.00" timeLoss="38.73" rerouteNo="0" devices="tripinfo_flow_cluster_1024122102_1024122804_1025562933_1025563079_#8more_SB.7" vType="car" speedFactor="1.15" vaporized=""/>
    <tripinfo id="flow_cluster_1024122102_1024122804_1025562933_1025563079_#8more_EB.3" depart="8.00" departLane="218652287#0_0" departPos="5.10" departSpeed="0.00" departDelay="0.06" arrival="183.00" arrivalLane="88293117_0" arrivalPos="8.12" arrivalSpeed="11.26" duration="175.00" routeLength="2869.95" waitingTime="0.00" waitingCount="0" stopTime="0.00" timeLoss="28.15" rerouteNo="0" devices="tripinfo_flow_cluster_1024122102_1024122804_1025562933_1025563079_#8more_EB.3" vType="car" speedFactor="1.03" vaporized=""/>
    <tripinfo id="flow_cluster_1024122102_1024122804_1025562933_1025563079_#8more_SB.4" depart="55.00" departLane="238694432#5_0" departPos="5.10" departSpeed="0.00" departDelay="39.45" arrival="186.00" arrivalLane="1166318930#3_0" arrivalPos="21.51" arrivalSpeed="11.49" duration="131.00" routeLength="1524.10" waitingTime="0.00" waitingCount="0" stopTime="0.00" timeLoss="21.36" rerouteNo="0" devices="tripinfo_flow_cluster_1024122102_1024122804_1025562933_1025563079_#8more_SB.4" vType="car" speedFactor="0.94" vaporized=""/>
    <tripinfo id="flow_cluster_1024122102_1024122804_1025562933_1025563079_#8more_WB.10" depart="102.00" departLane="218652294#0_0" departPos="5.10" departSpeed="0.00" departDelay="44.86" arrival="189.00" arrivalLane="218652269_0" arrivalPos="1694.31" arrivalSpeed="24.51" duration="87.00" routeLength="1968.69" waitingTime="0.00" waitingCount="0" stopTime="0.00" timeLoss="7.43" rerouteNo="0" devices="tripinfo_flow_cluster_1024122102_1024122804_1025562933_1025563079_#8more_WB.10" vType="car" speedFactor="1.02" vaporized=""/>
    <tripinfo id="flow_cluster_1024122102_1024122804_1025562933_1025563079_#8more_SB.16" depart="149.00" departLane="238694432#5_0" departPos="5.10" departSpeed="0.00" departDelay="86.81" arrival="191.00" arrivalLane="1166318930#3_0" arrivalPos="21.51" arrivalSpeed="14.33" duration="42.00" routeLength="540.25" waitingTime="0.00" waitingCount="0" stopTime="0.00" timeLoss="13.11" rerouteNo="0" devices="tripinfo_flow_cluster_1024122102_1024122804_1025562933_1025563079_#8more_SB.16" vType="car" speedFactor="1.04" vaporized=""/>
    <tripinfo id="flow_cluster_1024122102_1024122804_1025562933_1025563079_#8more_SB.17" depart="153.00" departLane="238694432#5_0" departPos="5.10" departSpeed="0.00" departDelay="86.92" arrival="195.00" arrivalLane="1166318930#3_0" arrivalPos="21.51" arrivalSpeed="11.90" duration="42.00" routeLength="540.25" waitingTime="0.00" waitingCount="0" stopTime="0.00" timeLoss="9.80" rerouteNo="0" devices="tripinfo_flow_cluster_1024122102_1024122804_1025562933_1025563079_#8more_SB.17" vType="car" speedFactor="0.94" vaporized=""/>
    <tripinfo id="flow_cluster_1024122102_1024122804_1025562933_1025563079_#8more_SB.15" depart="146.00" departLane="238694432#5_0" departPos="5.10" departSpeed="0.00" departDelay="87.69" arrival="200.00" arrivalLane="88293117_0" arrivalPos="8.12" arrivalSpeed="9.81" duration="54.00" routeLength="590.43" waitingTime="0.00" waitingCount="0" stopTime="0.00" timeLoss="10.38" rerouteNo="0" devices="tripinfo_flow_cluster_1024122102_1024122804_1025562933_1025563079_#8more_SB.15" vType="car" speedFactor="0.88" vaporized=""/>
    <tripinfo id="flow_cluster_1024122102_1024122804_1025562933_1025563079_#8more_WB.7" depart="95.00" departLane="218652294#0_0" departPos="5.10" departSpeed="0.00" departDelay="55.00" arrival="203.00" arrivalLane="1166318930#3_0" arrivalPos="21.51" arrivalSpeed="14.13" duration="108.00" routeLength="1455.76" waitingTime="0.00" waitingCount="0" stopTime="0.00" timeLoss="20.83" rerouteNo="0" devices="tripinfo_flow_cluster_1024122102_1024122804_1025562933_1025563079_#8more_WB.7" vType="car" speedFactor="1.09" vaporized=""/>
    <tripinfo id="flow_cluster_1024122102_1024122804_1025562933_1025563079_#8more_SB.6" depart="59.00" departLane="238694432#5_0" departPos="5.10" departSpeed="0.00" departDelay="35.68" arrival="209.00" arrivalLane="321934076#1_0" arrivalPos="9.86" arrivalSpeed="20.60" duration="150.00" routeLength="1940.18" waitingTime="0.00" waitingCount="0" stopTime="0.00" timeLoss="21.12" rerouteNo="0" devices="tripinfo_flow_cluster_1024122102_1024122804_1025562933_1025563079_#8more_SB.6" vType="car" speedFactor="0.95" vaporized=""/>
    <tripinfo id="flow_cluster_1024122102_1024122804_1025562933_1025563079_#8more_WB.17" depart="115.00" departLane="218652294#0_0" departPos="5.10" departSpeed="0.00" departDelay="17.86" arrival="212.00" arrivalLane="1166318930#3_0" arrivalPos="21.51" arrivalSpeed="14.63" duration="97.00" routeLength="512.84" waitingTime="63.00" waitingCount="1" stopTime="0.00" timeLoss="72.57" rerouteNo="0" devices="tripinfo_flow_cluster_1024122102_1024122804_1025562933_1025563079_#8more_WB.17" vType="car" speedFactor="1.07" vaporized=""/>
    <tripinfo id="flow_cluster_1024122102_1024122804_1025562933_1025563079_#8more_NB.13" depart="73.00" departLane="218652254#1_0" departPos="0.20" departSpeed="0.00" departDelay="22.90" arrival="214.00" arrivalLane="1166318930#3_0" arrivalPos="21.51" arrivalSpeed="13.53" duration="141.00" routeLength="599.38" waitingTime="94.00" waitingCount="1" stopTime="0.00" timeLoss="106.14" rerouteNo="0" devices="tripinfo_flow_cluster_1024122102_1024122804_1025562933_1025563079_#8more_NB.13" vType="car" speedFactor="1.00" vaporized=""/>
    <tripinfo id="flow_cluster_1024122102_1024122804_1025562933_1025563079_#8more_SB.12" depart="139.00" departLane="238694432#5_0" departPos="5.10" departSpeed="0.00" departDelay="92.36" arrival="218.00" arrivalLane="-773828749_0" arrivalPos="78.30" arrivalSpeed="13.87" duration="79.00" routeLength="819.09" waitingTime="0.00" waitingCount="0" stopTime="0.00" timeLoss="22.59" rerouteNo="0" devices="tripinfo_flow_cluster_1024122102_1024122804_1025562933_1025563079_#8more_SB.12" vType="car" speedFactor="1.02" vaporized=""/>
    <tripinfo id="flow_cluster_1024122102_1024122804_1025562933_1025563079_#8more_WB.12" depart="105.00" departLane="218652294#0_0" departPos="5.10" departSpeed="0.00" departDelay="36.43" arrival="221.00" arrivalLane="1166318930#3_0" arrivalPos="21.51" arrivalSpeed="12.36" duration="116.00" routeLength="1455.76" waitingTime="0.00" waitingCount="0" stopTime="0.00" timeLoss="16.32" rerouteNo="0" devices="tripinfo_flow_cluster_1024122102_1024122804_1025562933_1025563079_#8more_WB.12" vType="car" speedFactor="0.96" vaporized=""/>
    <tripinfo id="flow_cluster_1024122102_1024122804_1025562933_1025563079_#8more_WB.21" depart="184.00" departLane="218652294#0_0" departPos="5.10" departSpeed="0.00" departDelay="64.01" arrival="226.00" arrivalLane="1166318930#3_0" arrivalPos="21.51" arrivalSpeed="13.64" duration="42.00" routeLength="560.40" waitingTime="0.00" waitingCount="0" stopTime="0.00" timeLoss="12.48" rerouteNo="0" devices="tripinfo_flow_cluster_1024122102_1024122804_1025562933_1025563079_#8more_WB.21" vType="car" speedFactor="1.03" vaporized=""/>
    <tripinfo id="flow_cluster_1024122102_1024122804_1025562933_1025563079_#8more_EB.10" depart="125.00" departLane="218652287#0_0" departPos="5.10" departSpeed="0.00" departDelay="98.55" arrival="229.00" arrivalLane="88293117_0" arrivalPos="8.12" arrivalSpeed="10.03" duration="104.00" routeLength="556.34" waitingTime="52.00" waitingCount="1" stopTime="0.00" timeLoss="62.61" rerouteNo="0" devices="tripinfo_flow_cluster_1024122102_1024122804_1025562933_1025563079_#8more_EB.10" vType="car" speedFactor="0.93" vaporized=""/>
    <tripinfo id="flow_cluster_1024122102_1024122804_1025562933_1025563079_#8more_WB.16" depart="112.00" departLane="218652294#0_0" departPos="5.10" departSpeed="0.00" departDelay="20.58" arrival="235.00" arrivalLane="1166318930#3_0" arrivalPos="21.51" arrivalSpeed="13.31" duration="123.00" routeLength="1544.25" waitingTime="1.00" waitingCount="1" stopTime="0.00" timeLoss="28.15" rerouteNo="0" devices="tripinfo_flow_cluster_1024122102_1024122804_1025562933_1025563079_#8more_WB.16" vType="car" speedFactor="1.10" vaporized=""/>
    <tripinfo id="flow_cluster_1024122102_1024122804_1025562933_1025563079_#8more_SB.18" depart="156.00" departLane="238694432#5_0" departPos="5.10" departSpeed="0.00" departDelay="86.03" arrival="246.00" arrivalLane="218652269_0" arrivalPos="1694.31" arrivalSpeed="23.79" duration="90.00" routeLength="1948.54" waitingTime="0.00" waitingCount="0" stopTime="0.00" timeLoss="7.37" rerouteNo="0" devices="tripinfo_flow_cluster_1024122102_1024122804_1025562933_1025563079_#8more_SB.18" vType="car" speedFactor="0.98" vaporized=""/>
    <tripinfo id="flow_cluster_1024122102_1024122804_1025562933_1025563079_#8more_WB.25" depart="191.00" departLane="218652294#0_0" departPos="5.10" departSpeed="0.00" departDelay="48.15" arrival="255.00" arrivalLane="1166318930#3_0" arrivalPos="21.51" arrivalSpeed="14.12" duration="64.00" routeLength="790.84" waitingTime="0.00" waitingCount="0" stopTime="0.00" timeLoss="20.81" rerouteNo="0" devices="tripinfo_flow_cluster_1024122102_1024122804_1025562933_1025563079_#8more_WB.25" vType="car" speedFactor="1.12" vaporized=""/>
    <tripinfo id="flow_cluster_1024122102_1024122804_1025562933_1025563079_#8more_SB.20" depart="183.00" departLane="238694432#5_0" departPos="5.10" departSpeed="0.00" departDelay="105.26" arrival="258.00" arrivalLane="1166318930#3_0" arrivalPos="21.51" arrivalSpeed="13.42" duration="75.00" routeLength="492.69" waitingTime="38.00" waitingCount="1" stopTime="0.00" timeLoss="48.07" rerouteNo="0" devices="tripinfo_flow_cluster_1024122102_1024122804_1025562933_1025563079_#8more_SB.20" vType="car" speedFactor="0.98" vaporized=""/>
    <tripinfo id="flow_cluster_1024122102_1024122804_1025562933_1025563079_#8more_WB.22" depart="185.00" departLane="218652294#0_0" departPos="5.10" departSpeed="0.00" departDelay="59.29" arrival="267.00" arrivalLane="218652269_0" arrivalPos="1694.31" arrivalSpeed="27.22" duration="82.00" routeLength="1968.69" waitingTime="1.00" waitingCount="1" stopTime="0.00" timeLoss="9.44" rerouteNo="0" devices="tripinfo_flow_cluster_1024122102_1024122804_1025562933_1025563079_#8more_WB.22" vType="car" speedFactor="1.12" vaporized=""/>
    <tripinfo id="flow_cluster_1024122102_1024122804_1025562933_1025563079_#8more_SB.21" depart="226.00" departLane="238694432#5_0" departPos="5.10" departSpeed="0.00" departDelay="144.37" arrival="272.00" arrivalLane="1166318930#3_0" arrivalPos="21.51" arrivalSpeed="11.32" duration="46.00" routeLength="581.18" waitingTime="0.00" waitingCount="0" stopTime="0.00" timeLoss="12.83" rerouteNo="0" devices="tripinfo_flow_cluster_1024122102_1024122804_1025562933_1025563079_#8more_SB.21" vType="car" speedFactor="1.02" vaporized=""/>
    <tripinfo id="flow_cluster_1024122102_1024122804_1025562933_1025563079_#8more_WB.11" depart="103.00" departLane="218652294#0_0" departPos="5.10" departSpeed="0.00" departDelay="40.15" arrival="277.00" arrivalLane="218899453_0" arrivalPos="27.29" arrivalSpeed="16.19" duration="174.00" routeLength="1201.07" waitingTime="64.00" waitingCount="4" stopTime="0.00" timeLoss="90.80" rerouteNo="0" devices="tripinfo_flow_cluster_1024122102_1024122804_1025562933_1025563079_#8more_WB.11" vType="car" speedFactor="1.02" vaporized=""/>
    <tripinfo id="flow_cluster_1024122102_1024122804_1025562933_1025563079_#8more_SB.25" depart="238.00" departLane="238694432#5_0" departPos="5.10" departSpeed="0.00" departDelay="140.82" arrival="280.00" arrivalLane="1166318930#3_0" arrivalPos="21.51" arrivalSpeed="13.95" duration="42.00" routeLength="540.25" waitingTime="0.00" waitingCount="0" stopTime="0.00" timeLoss="11.91" rerouteNo="0" devices="tripinfo_flow_cluster_1024122102_1024122804_1025562933_1025563079_#8more_SB.25" vType="car" speedFactor="1.01" vaporized=""/>
    <tripinfo id="flow_cluster_1024122102_1024122804_1025562933_1025563079_#8more_SB.10" depart="71.00" departLane="238694432#5_0" departPos="5.10" departSpeed="0.00" departDelay="32.13" arrival="283.00" arrivalLane="1166318930#3_0" arrivalPos="21.51" arrivalSpeed="12.15" duration="212.00" routeLength="1346.56" waitingTime="60.00" waitingCount="1" stopTime="0.00" timeLoss="94.20" rerouteNo="0" devices="tripinfo_flow_cluster_1024122102_1024122804_1025562933_1025563079_#8more_SB.10" vType="car" speedFactor="1.04" vaporized=""/>
    <tripinfo id="flow_cluster_1024122102_1024122804_1025562933_1025563079_#8more_SB.26" depart="241.00" departLane="238694432#5_0" departPos="5.10" departSpeed="0.00" departDelay="139.94" arrival="288.00" arrivalLane="1166318930#3_0" arrivalPos="21.51" arrivalSpeed="11.28" duration="47.00" routeLength="581.18" waitingTime="0.00" waitingCount="0" stopTime="0.00" timeLoss="11.24" rerouteNo="0" devices="tripinfo_flow_cluster_1024122102_1024122804_1025562933_1025563079_#8more_SB.26" vType="car" speedFactor="0.93" vaporized=""/>
    <tripinfo id="flow_cluster_1024122102_1024122804_1025562933_1025563079_#8more_NB.19" depart="148.00" departLane="218652254#1_0" departPos="0.20" departSpeed="0.00" departDelay="74.77" arrival="300.00" arrivalLane="1166318930#3_0" arrivalPos="21.51" arrivalSpeed="12.05" duration="152.00" routeLength="599.38" waitingTime="109.00" waitingCount="1" stopTime="0.00" timeLoss="120.04" rerouteNo="0" devices="tripinfo_flow_cluster_1024122102_1024122804_1025562933_1025563079_#8more_NB.19" vType="car" speedFactor="1.09" vaporized=""/>
    <tripinfo id="flow_cluster_1024122102_1024122804_1025562933_1025563079_#8more_EB.7" depart="38.00" departLane="218652287#0_0" departPos="5.10" departSpeed="0.00" departDelay="19.48" arrival="303.00" arrivalLane="-218899458#1_1" arrivalPos="8.77" arrivalSpeed="6.44" duration="265.00" routeLength="3573.87" waitingTime="52.00" waitingCount="1" stopTime="0.00" timeLoss="99.42" rerouteNo="0" devices="tripinfo_flow_cluster_1024122102_1024122804_1025562933_1025563079_#8more_EB.7" vType="car" speedFactor="1.01" vaporized=""/>
    <tripinfo id="flow_cluster_1024122102_1024122804_1025562933_1025563079_#8more_WB.19" depart="181.00" departLane="218652294#0_0" departPos="5.10" departSpeed="0.00" departDelay="72.43" arrival="306.00" arrivalLane="1166318930#3_0" arrivalPos="21.51" arrivalSpeed="12.68" duration="125.00" routeLength="1544.25" waitingTime="0.00" waitingCount="0" stopTime="0.00" timeLoss="21.00" rerouteNo="0" devices="tripinfo_flow_cluster_1024122102_1024122804_1025562933_1025563079_#8more_WB.19" vType="car" speedFactor="0.99" vaporized=""/>
    <tripinfo id="flow_cluster_1024122102_1024122804_1025562933_1025563079_#8more_WB.27" depart="194.00" departLane="218652294#0_0" departPos="5.10" departSpeed="0.00" departDelay="39.72" arrival="310.00" arrivalLane="1166318930#3_0" arrivalPos="21.51" arrivalSpeed="13.37" duration="116.00" routeLength="560.40" waitingTime="74.00" waitingCount="1" stopTime="0.00" timeLoss="86.21" rerouteNo="0" devices="tripinfo_flow_cluster_1024122102_1024122804_1025562933_1025563079_#8more_WB.27" vType="car" speedFactor="1.03" vaporized=""/>
    <tripinfo id="flow_cluster_1024122102_1024122804_1025562933_1025563079_#8more_SB.22" depart="229.00" departLane="238694432#5_0" departPos="5.10" departSpeed="0.00" departDelay="143.49" arrival="324.00" arrivalLane="218652269_0" arrivalPos="1694.31" arrivalSpeed="21.57" duration="95.00" routeLength="1948.54" waitingTime="0.00" waitingCount="0" stopTime="0.00" timeLoss="6.81" rerouteNo="0" devices="tripinfo_flow_cluster_1024122102_1024122804_1025562933_1025563079_#8more_SB.22" vType="car" speedFactor="0.92" vaporized=""/>
    <tripinfo id="flow_cluster_1024122102_1024122804_1025562933_1025563079_#8more_SB.24" depart="235.00" departLane="238694432#5_0" departPos="5.10" departSpeed="0.00" departDelay="141.71" arrival="325.00" arrivalLane="218652269_0" arrivalPos="1694.31" arrivalSpeed="23.60" duration="90.00" routeLength="1948.54" waitingTime="0.00" waitingCount="0" stopTime="0.00" timeLoss="6.66" rerouteNo="0" devices="tripinfo_flow_cluster_1024122102_1024122804_1025562933_1025563079_#8more_SB.24" vType="car" speedFactor="0.97" vaporized=""/>
    <tripinfo id="flow_cluster_1024122102_1024122804_1025562933_1025563079_#8more_WB.34" depart="285.00" departLane="218652294#0_0" departPos="5.10" departSpeed="0.00" departDelay="90.72" arrival="329.00" arrivalLane="1166318930#3_0" arrivalPos="21.51" arrivalSpeed="12.83" duration="44.00" routeLength="560.40" waitingTime="1.00" waitingCount="1" stopTime="0.00" timeLoss="13.73" rerouteNo="0" devices="tripinfo_flow_cluster_1024122102_1024122804_1025562933_1025563079_#8more_WB.34" vType="car" speedFactor="0.98" vaporized=""/>
    <tripinfo id="flow_cluster_1024122102_1024122804_1025562933_1025563079_#8more_SB.19" depart="159.00" departLane="238694432#5_0" departPos="5.10" departSpeed="0.00" departDelay="85.15" arrival="337.00" arrivalLane="-773828749_0" arrivalPos="78.30" arrivalSpeed="13.30" duration="178.00" routeLength="1031.68" waitingTime="90.00" waitingCount="2" stopTime="0.00" timeLoss="108.14" rerouteNo="0" devices="tripinfo_flow_cluster_1024122102_1024122804_1025562933_1025563079_#8more_SB.19" vType="car" speedFactor="1.03" vaporized=""/>
    <tripinfo id="flow_cluster_1024122102_1024122804_1025562933_1025563079_#8more_WB.28" depart="215.00" departLane="218652294#0_0" departPos="5.10" departSpeed="0.00" departDelay="55.01" arrival="350.00" arrivalLane="218652269_0" arrivalPos="1694.31" arrivalSpeed="27.17" duration="135.00" routeLength="1968.69" waitingTime="55.00" waitingCount="1" stopTime="0.00" timeLoss="64.70" rerouteNo="0" devices="tripinfo_flow_cluster_1024122102_1024122804_1025562933_1025563079_#8more_WB.28" vType="car" speedFactor="1.14" vaporized=""/>
    <tripinfo id="flow_cluster_1024122102_1024122804_1025562933_1025563079_#8more_WB.0" depart="0.00" departLane="218652294#0_0" departPos="5.10" departSpeed="0.00" departDelay="0.00" arrival="357.00" arrivalLane="1166318930#3_0" arrivalPos="21.51" arrivalSpeed="12.15" duration="357.00" routeLength="3153.99" waitingTime="0.00" waitingCount="0" stopTime="0.00" timeLoss="79.60" rerouteNo="0" devices="tripinfo_flow_cluster_1024122102_1024122804_1025562933_1025563079_#8more_WB.0" vType="car" speedFactor="1.08" vaporized=""/>
    <tripinfo id="flow_cluster_1024122102_1024122804_1025562933_1025563079_#8more_EB.6" depart="35.00" departLane="218652287#0_0" departPos="5.10" departSpeed="0.00" departDelay="19.13" arrival="361.00" arrivalLane="218899458#0_0" arrivalPos="80.60" arrivalSpeed="28.46" duration="326.00" routeLength="4030.03" waitingTime="79.00" waitingCount="3" stopTime="0.00" timeLoss="151.92" rerouteNo="0" devices="tripinfo_flow_cluster_1024122102_1024122804_1025562933_1025563079_#8more_EB.6" vType="car" speedFactor="1.16" vaporized=""/>
    <tripinfo id="flow_cluster_1024122102_1024122804_1025562933_1025563079_#8more_SB.35" depart="329.00" departLane="238694432#5_0" departPos="5.10" departSpeed="0.00" departDelay="192.95" arrival="363.00" arrivalLane="1166318930#3_0" arrivalPos="21.51" arrivalSpeed="13.66" duration="34.00" routeLength="492.69" waitingTime="0.00" waitingCount="0" stopTime="0.00" timeLoss="7.93" rerouteNo="0" devices="tripinfo_flow_cluster_1024122102_1024122804_1025562933_1025563079_#8more_SB.35" vType="car" speedFactor="1.00" vaporized=""/>
    <tripinfo id="flow_cluster_1024122102_1024122804_1025562933_1025563079_#8more_NB.20" depart="150.00" departLane="218652254#1_0" departPos="0.20" departSpeed="0.00" departDelay="72.92" arrival="364.00" arrivalLane="1166318930#3_0" arrivalPos="21.51" arrivalSpeed="15.73" duration="214.00" routeLength="1453.81" waitingTime="110.00" waitingCount="1" stopTime="0.00" timeLoss="130.39" rerouteNo="0" devices="tripinfo_flow_cluster_1024122102_1024122804_1025562933_1025563079_#8more_NB.20" vType="car" speedFactor="1.15" vaporized=""/>
    <tripinfo id="flow_cluster_1024122102_1024122804_1025562933_1025563079_#8more_WB.33" depart="284.00" departLane="218652294#0_0" departPos="5.10" departSpeed="0.00" departDelay="95.44" arrival="365.00" arrivalLane="218652269_0" arrivalPos="1694.31" arrivalSpeed="27.12" duration="81.00" routeLength="1968.69" waitingTime="0.00" waitingCount="0" stopTime="0.00" timeLoss="8.57" rerouteNo="0" devices="tripinfo_flow_cluster_1024122102_1024122804_1025562933_1025563079_#8more_WB.33" vType="car" speedFactor="1.11" vaporized=""/>
    <tripinfo id="flow_cluster_1024122102_1024122804_1025562933_1025563079_#8more_WB.29" depart="272.00" departLane="218652294#0_0" departPos="5.10" departSpeed="0.00" departDelay="106.29" arrival="380.00" arrivalLane="1166318930#3_0" arrivalPos="21.51" arrivalSpeed="14.61" duration="108.00" routeLength="1455.76" waitingTime="1.00" waitingCount="1" stopTime="0.00" timeLoss="21.03" rerouteNo="0" devices="tripinfo_flow_cluster_1024122102_1024122804_1025562933_1025563079_#8more_WB.29" vType="car" speedFactor="1.08" vaporized=""/>
    <tripinfo id="flow_cluster_1024122102_1024122804_1025562933_1025563079_#8more_EB.0" depart="0.00" departLane="218652287#0_0" departPos="5.10" departSpeed="0.00" departDelay="0.00" arrival="397.00" arrivalLane="218652269_0" arrivalPos="1694.31" arrivalSpeed="25.37" duration="397.00" routeLength="8395.96" waitingTime="34.00" waitingCount="2" stopTime="0.00" timeLoss="71.95" rerouteNo="0" devices="tripinfo_flow_cluster_1024122102_1024122804_1025562933_1025563079_#8more_EB.0" vType="car" speedFactor="1.06" vaporized=""/>
    <tripinfo id="flow_cluster_1024122102_1024122804_1025562933_1025563079_#8more_SB.30" depart="251.00" departLane="238694432#5_0" departPos="5.10" departSpeed="0.00" departDelay="134.39" arrival="420.00" arrivalLane="218652269_0" arrivalPos="1694.31" arrivalSpeed="19.21" duration="169.00" routeLength="1948.54" waitingTime="60.00" waitingCount="1" stopTime="0.00" timeLoss="70.62" rerouteNo="0" devices="tripinfo_flow_cluster_1024122102_1024122804_1025562933_1025563079_#8more_SB.30" vType="car" speedFactor="0.82" vaporized=""/>
    <tripinfo id="flow_cluster_1024122102_1024122804_1025562933_1025563079_#8more_SB.36" depart="332.00" departLane="238694432#5_0" departPos="5.10" departSpeed="0.00" departDelay="192.07" arrival="420.00" arrivalLane="218652269_1" arrivalPos="1694.31" arrivalSpeed="24.26" duration="88.00" routeLength="1948.54" waitingTime="0.00" waitingCount="0" stopTime="0.00" timeLoss="7.01" rerouteNo="0" devices="tripinfo_flow_cluster_1024122102_1024122804_1025562933_1025563079_#8more_SB.36" vType="car" speedFactor="1.00" vaporized=""/>
    <tripinfo id="flow_cluster_1024122102_1024122804_1025562933_1025563079_#8more_NB.2" depart="8.00" departLane="218652254#1_0" departPos="0.20" departSpeed="0.00" departDelay="0.29" arrival="427.00" arrivalLane="1166318930#3_0" arrivalPos="21.51" arrivalSpeed="11.82" duration="419.00" routeLength="7022.61" waitingTime="39.00" waitingCount="1" stopTime="0.00" timeLoss="72.84" rerouteNo="0" devices="tripinfo_flow_cluster_1024122102_1024122804_1025562933_1025563079_#8more_NB.2" vType="car" speedFactor="0.86" vaporized=""/>
    <tripinfo id="flow_cluster_1024122102_1024122804_1025562933_1025563079_#8more_EB.1" depart="3.00" departLane="218652287#0_0" departPos="5.10" departSpeed="0.00" departDelay="0.35" arrival="430.00" arrivalLane="1166318930#3_0" arrivalPos="21.51" arrivalSpeed="14.28" duration="427.00" routeLength="7883.03" waitingTime="33.00" waitingCount="2" stopTime="0.00" timeLoss="78.85" rerouteNo="0" devices="tripinfo_flow_cluster_1024122102_1024122804_1025562933_1025563079_#8more_EB.1" vType="car" speedFactor="1.03" vaporized=""/>
    <tripinfo id="flow_cluster_1024122102_1024122804_1025562933_1025563079_#8more_WB.24" depart="190.00" departLane="218652294#0_0" departPos="5.10" departSpeed="0.00" departDelay="52.86" arrival="432.00" arrivalLane="-773828749_0" arrivalPos="78.30" arrivalSpeed="12.52" duration="242.00" routeLength="2001.06" waitingTime="48.00" waitingCount="2" stopTime="0.00" timeLoss="89.55" rerouteNo="0" devices="tripinfo_flow_cluster_1024122102_1024122804_1025562933_1025563079_#8more_WB.24" vType="car" speedFactor="0.97" vaporized=""/>