<?xml version="1.0" encoding="UTF-8"?>

<!-- generated on 2025-12-13T15:37:19.997745+05:30 by Eclipse SUMO GUI 1.25.0
<sumoConfiguration xmlns:xsi="http://www.w3.org/2001/XMLSchema-instance" xsi:noNamespaceSchemaLocation="http://sumo.dlr.de/xsd/sumoConfiguration.xsd">

    <input>
        <net-file value="map.net.xml"/>
        <route-files value="traffic.rou.xml"/>
        <additional-files value="traffic_sensors.add.xml"/>
    </input>

    <output>
        <queue-output value="queue.xml"/>
        <summary-output value="summary.xml"/>
        <tripinfo-output value="tripinfo.xml"/>
    </output>

    <time>
        <begin value="0"/>
        <end value="3600"/>
    </time>

</sumoConfiguration>
-->

<tripinfos xmlns:xsi="http://www.w3.org/2001/XMLSchema-instance" xsi:noNamespaceSchemaLocation="http://sumo.dlr.de/xsd/tripinfo_file.xsd">
    <tripinfo id="flow_1025551194_EB.0" depart="0.00" departLane="88289922#6_0" departPos="5.10" departSpeed="0.00" departDelay="0.00" arrival="103.00" arrivalLane="88289922#5_0" arrivalPos="140.79" arrivalSpeed="22.40" duration="103.00" routeLength="1469.27" waitingTime="0.00" waitingCount="0" stopTime="0.00" timeLoss="25.32" rerouteNo="0" devices="tripinfo_flow_1025551194_EB.0" vType="car" speedFactor="1.06" vaporized=""/>
    <tripinfo id="flow_1025551194_EB.2" depart="59.00" departLane="88289922#6_0" departPos="5.10" departSpeed="0.00" departDelay="0.46" arrival="141.00" arrivalLane="1017920809#1_0" arrivalPos="585.48" arrivalSpeed="13.59" duration="82.00" routeLength="822.35" waitingTime="14.00" waitingCount="1" stopTime="0.00" timeLoss="26.03" rerouteNo="0" devices="tripinfo_flow_1025551194_EB.2" vType="car" speedFactor="0.89" vaporized=""/>
    <tripinfo id="flow_1025551194_EB.1" depart="30.00" departLane="88289922#6_0" departPos="5.10" departSpeed="0.00" departDelay="0.73" arrival="153.00" arrivalLane="1017920809#1_0" arrivalPos="585.48" arrivalSpeed="15.81" duration="123.00" routeLength="876.40" waitingTime="50.00" waitingCount="2" stopTime="0.00" timeLoss="70.47" rerouteNo="0" devices="tripinfo_flow_1025551194_EB.1" vType="car" speedFactor="1.03" vaporized=""/>
    <tripinfo id="flow_1025551194_SB.2" depart="88.00" departLane="-88291250#0_0" departPos="5.10" departSpeed="0.00" departDelay="0.20" arrival="158.00" arrivalLane="1017920809#1_0" arrivalPos="585.48" arrivalSpeed="16.05" duration="70.00" routeLength="869.14" waitingTime="2.00" waitingCount="1" stopTime="0.00" timeLoss="17.59" rerouteNo="0" devices="tripinfo_flow_1025551194_SB.2" vType="car" speedFactor="1.03" vaporized=""/>
    <tripinfo id="flow_1025551194_SB.0" depart="0.00" departLane="-88291250#0_0" departPos="5.10" departSpeed="0.00" departDelay="0.00" arrival="227.00" arrivalLane="-88291250#1_0" arrivalPos="133.72" arrivalSpeed="12.59" duration="227.00" routeLength="2604.11" waitingTime="2.00" waitingCount="1" stopTime="0.00" timeLoss="46.50" rerouteNo="0" devices="tripinfo_flow_1025551194_SB.0" vType="car" speedFactor="0.94" vaporized=""/>
    <tripinfo id="flow_1025551194_WB.0" depart="0.00" departLane="-88289922#7_0" departPos="5.10" departSpeed="0.00" departDelay="0.00" arrival="227.00" arrivalLane="1017920809#1_0" arrivalPos="585.48" arrivalSpeed="14.92" duration="227.00" routeLength="3634.94" waitingTime="0.00" waitingCount="0" stopTime="0.00" timeLoss="25.02" rerouteNo="0" devices="tripinfo_flow_1025551194_WB.0" vType="car" speedFactor="1.01" vaporized=""/>
    <tripinfo id="flow_1025551194_WB.5" depart="109.00" departLane="-88289922#7_0" departPos="5.10" departSpeed="0.00" departDelay="0.57" arrival="235.00" arrivalLane="1017920809#1_0" arrivalPos="585.48" arrivalSpeed="16.36" duration="126.00" routeLength="1640.40" waitingTime="8.00" waitingCount="1" stopTime="0.00" timeLoss="35.93" rerouteNo="0" devices="tripinfo_flow_1025551194_WB.5" vType="car" speedFactor="1.05" vaporized=""/>
    <tripinfo id="flow_1025551194_SB.4" depart="176.00" departLane="-88291250#0_0" departPos="5.10" departSpeed="0.00" departDelay="0.39" arrival="241.00" arrivalLane="1017920809#1_0" arrivalPos="585.48" arrivalSpeed="15.34" duration="65.00" routeLength="815.09" waitingTime="4.00" waitingCount="1" stopTime="0.00" timeLoss="15.34" rerouteNo="0" devices="tripinfo_flow_1025551194_SB.4" vType="car" speedFactor="1.02" vaporized=""/>
    <tripinfo id="flow_1025551194_WB.6" depart="131.00" departLane="-88289922#7_0" departPos="5.10" departSpeed="0.00" departDelay="0.88" arrival="336.00" arrivalLane="-88289922#8_0" arrivalPos="172.17" arrivalSpeed="20.95" duration="205.00" routeLength="2084.30" waitingTime="44.00" waitingCount="1" stopTime="0.00" timeLoss="79.54" rerouteNo="0" devices="tripinfo_flow_1025551194_WB.6" vType="car" speedFactor="0.99" vaporized=""/>
    <tripinfo id="flow_1025551194_EB.10" depart="293.00" departLane="88289922#6_0" departPos="5.10" departSpeed="0.00" departDelay="0.32" arrival="370.00" arrivalLane="218652277_0" arrivalPos="35.95" arrivalSpeed="22.27" duration="77.00" routeLength="1099.47" waitingTime="0.00" waitingCount="0" stopTime="0.00" timeLoss="21.53" rerouteNo="0" devices="tripinfo_flow_1025551194_EB.10" vType="car" speedFactor="1.15" vaporized=""/>
    <tripinfo id="flow_1025551194_EB.9" depart="264.00" departLane="88289922#6_0" departPos="5.10" departSpeed="0.00" departDelay="0.59" arrival="429.00" arrivalLane="88289922#5_0" arrivalPos="140.79" arrivalSpeed="24.26" duration="165.00" routeLength="2081.64" waitingTime="0.00" waitingCount="0" stopTime="0.00" timeLoss="48.71" rerouteNo="0" devices="tripinfo_flow_1025551194_EB.9" vType="car" speedFactor="1.13" vaporized=""/>
    <tripinfo id="flow_1025551194_WB.10" depart="217.00" departLane="-88289922#7_0" departPos="5.10" departSpeed="0.00" departDelay="0.14" arrival="438.00" arrivalLane="1017920809#1_0" arrivalPos="585.48" arrivalSpeed="13.55" duration="221.00" routeLength="3150.19" waitingTime="0.00" waitingCount="0" stopTime="0.00" timeLoss="29.66" rerouteNo="0" devices="tripinfo_flow_1025551194_WB.10" vType="car" speedFactor="0.89" vaporized=""/>
    <tripinfo id="flow_1025551194_EB.6" depart="176.00" departLane="88289922#6_0" departPos="5.10" departSpeed="0.00" departDelay="0.39" arrival="442.00" arrivalLane="88289922#5_0" arrivalPos="140.79" arrivalSpeed="25.56" duration="266.00" routeLength="3034.84" waitingTime="41.00" waitingCount="2" stopTime="0.00" timeLoss="98.93" rerouteNo="0" devices="tripinfo_flow_1025551194_EB.6" vType="car" speedFactor="1.16" vaporized=""/>
    <tripinfo id="flow_1025551194_WB.12" depart="261.00" departLane="-88289922#7_0" departPos="5.10" departSpeed="0.00" departDelay="0.77" arrival="452.00" arrivalLane="1017920809#1_0" arrivalPos="585.48" arrivalSpeed="13.97" duration="191.00" routeLength="2331.37" waitingTime="13.00" waitingCount="1" stopTime="0.00" timeLoss="39.35" rerouteNo="0" devices="tripinfo_flow_1025551194_WB.12" vType="car" speedFactor="0.95" vaporized=""/>
    <tripinfo id="flow_1025551194_WB.19" depart="413.00" departLane="-88289922#7_0" departPos="5.10" departSpeed="0.00" departDelay="0.97" arrival="479.00" arrivalLane="218652277_0" arrivalPos="35.95" arrivalSpeed="20.08" duration="66.00" routeLength="1160.50" waitingTime="0.00" waitingCount="0" stopTime="0.00" timeLoss="6.00" rerouteNo="0" devices="tripinfo_flow_1025551194_WB.19" vType="car" speedFactor="1.04" vaporized=""/>
    <tripinfo id="flow_1025551194_EB.8" depart="235.00" departLane="88289922#6_0" departPos="5.10" departSpeed="0.00" departDelay="0.86" arrival="495.00" arrivalLane="-773828749_0" arrivalPos="78.29" arrivalSpeed="11.60" duration="260.00" routeLength="1877.68" waitingTime="56.00" waitingCount="3" stopTime="0.00" timeLoss="109.49" rerouteNo="0" devices="tripinfo_flow_1025551194_EB.8" vType="car" speedFactor="0.87" vaporized=""/>
    <tripinfo id="flow_1025551194_WB.1" depart="22.00" departLane="-88289922#7_0" departPos="5.10" departSpeed="0.00" departDelay="0.31" arrival="500.00" arrivalLane="1017920809#1_0" arrivalPos="585.48" arrivalSpeed="15.94" duration="478.00" routeLength="6758.20" waitingTime="0.00" waitingCount="0" stopTime="0.00" timeLoss="83.36" rerouteNo="0" devices="tripinfo_flow_1025551194_WB.1" vType="car" speedFactor="1.08" vaporized=""/>
    <tripinfo id="flow_1025551194_EB.4" depart="118.00" departLane="88289922#6_0" departPos="5.10" departSpeed="0.00" departDelay="0.93" arrival="542.00" arrivalLane="218652277_1" arrivalPos="35.95" arrivalSpeed="22.10" duration="424.00" routeLength="7644.90" waitingTime="80.00" waitingCount="3" stopTime="0.00" timeLoss="130.20" rerouteNo="0" devices="tripinfo_flow_1025551194_EB.4" vType="car" speedFactor="1.12" vaporized=""/>
    <tripinfo id="flow_1025551194_WB.4" depart="87.00" departLane="-88289922#7_0" departPos="5.10" departSpeed="0.00" departDelay="0.26" arrival="555.00" arrivalLane="-88289922#8_0" arrivalPos="172.17" arrivalSpeed="18.36" duration="468.00" routeLength="4933.42" waitingTime="44.00" waitingCount="1" stopTime="0.00" timeLoss="108.94" rerouteNo="0" devices="tripinfo_flow_1025551194_WB.4" vType="car" speedFactor="0.86" vaporized=""/>
    <tripinfo id="flow_1025551194_EB.3" depart="88.00" departLane="88289922#6_0" departPos="5.10" departSpeed="0.00" departDelay="0.20" arrival="555.00" arrivalLane="218652269_0" arrivalPos="1694.32" arrivalSpeed="25.66" duration="467.00" routeLength="9793.22" waitingTime="28.00" waitingCount="1" stopTime="0.00" timeLoss="84.68" rerouteNo="0" devices="tripinfo_flow_1025551194_EB.3" vType="car" speedFactor="1.09" vaporized=""/>
    <tripinfo id="flow_1025551194_EB.11" depart="322.00" departLane="88289922#6_0" departPos="5.10" departSpeed="0.00" departDelay="0.05" arrival="565.00" arrivalLane="88293117_0" arrivalPos="8.13" arrivalSpeed="11.89" duration="243.00" routeLength="1975.19" waitingTime="53.00" waitingCount="2" stopTime="0.00" timeLoss="106.08" rerouteNo="0" devices="tripinfo_flow_1025551194_EB.11" vType="car" speedFactor="0.99" vaporized=""/>
    <tripinfo id="flow_1025551194_EB.5" depart="147.00" departLane="88289922#6_0" departPos="5.10" departSpeed="0.00" departDelay="0.66" arrival="576.00" arrivalLane="88289922#5_0" arrivalPos="140.79" arrivalSpeed="19.46" duration="429.00" routeLength="4298.15" waitingTime="57.00" waitingCount="5" stopTime="0.00" timeLoss="137.57" rerouteNo="0" devices="tripinfo_flow_1025551194_EB.5" vType="car" speedFactor="0.88" vaporized=""/>
    <tripinfo id="flow_1025551194_WB.20" depart="434.00" departLane="-88289922#7_0" departPos="5.10" departSpeed="0.00" departDelay="0.28" arrival="583.00" arrivalLane="1017920809#1_0" arrivalPos="585.48" arrivalSpeed="16.15" duration="149.00" routeLength="1122.81" waitingTime="55.00" waitingCount="2" stopTime="0.00" timeLoss="81.61" rerouteNo="0" devices="tripinfo_flow_1025551194_WB.20" vType="car" speedFactor="1.09" vaporized=""/>
    <tripinfo id="flow_1025551194_SB.11" depart="488.00" departLane="-88291250#0_0" departPos="5.10" departSpeed="0.00" departDelay="5.08" arrival="589.00" arrivalLane="1017920809#1_1" arrivalPos="585.48" arrivalSpeed="17.54" duration="101.00" routeLength="1432.73" waitingTime="4.00" waitingCount="1" stopTime="0.00" timeLoss="32.49" rerouteNo="0" devices="tripinfo_flow_1025551194_SB.11" vType="car" speedFactor="1.17" vaporized=""/>
    <tripinfo id="flow_1025551194_EB.15" depart="442.00" departLane="88289922#6_0" departPos="5.10" departSpeed="0.00" departDelay="2.98" arrival="593.00" arrivalLane="88289922#5_0" arrivalPos="140.79" arrivalSpeed="18.60" duration="151.00" routeLength="2175.39" waitingTime="6.00" waitingCount="1" stopTime="0.00" timeLoss="39.64" rerouteNo="0" devices="tripinfo_flow_1025551194_EB.15" vType="car" speedFactor="1.00" vaporized=""/>
    <tripinfo id="flow_1025551194_WB.9" depart="196.00" departLane="-88289922#7_0" departPos="5.10" departSpeed="0.00" departDelay="0.83" arrival="594.00" arrivalLane="-88289922#8_0" arrivalPos="172.17" arrivalSpeed="22.23" duration="398.00" routeLength="5710.85" waitingTime="0.00" waitingCount="0" stopTime="0.00" timeLoss="56.07" rerouteNo="0" devices="tripinfo_flow_1025551194_WB.9" vType="car" speedFactor="1.01" vaporized=""/>
    <tripinfo id="flow_1025551194_WB.11" depart="239.00" departLane="-88289922#7_0" departPos="5.10" departSpeed="0.00" departDelay="0.45" arrival="596.00" arrivalLane="1017920809#1_0" arrivalPos="585.48" arrivalSpeed="13.80" duration="357.00" routeLength="4479.32" waitingTime="23.00" waitingCount="2" stopTime="0.00" timeLoss="78.12" rerouteNo="0" devices="tripinfo_flow_1025551194_WB.11" vType="car" speedFactor="0.92" vaporized=""/>
    <tripinfo id="flow_1025551194_WB.17" depart="369.00" departLane="-88289922#7_0" departPos="5.10" departSpeed="0.00" departDelay="0.34" arrival="597.00" arrivalLane="88293117_0" arrivalPos="8.13" arrivalSpeed="8.57" duration="228.00" routeLength="3077.95" waitingTime="2.00" waitingCount="1" stopTime="0.00" timeLoss="41.41" rerouteNo="0" devices="tripinfo_flow_1025551194_WB.17" vType="car" speedFactor="0.90" vaporized=""/>
    <tripinfo id="flow_1025551194_SB.9" depart="396.00" departLane="-88291250#0_0" departPos="5.10" departSpeed="0.00" departDelay="0.88" arrival="609.00" arrivalLane="218652269_0" arrivalPos="1694.32" arrivalSpeed="26.55" duration="213.00" routeLength="2848.48" waitingTime="62.00" waitingCount="2" stopTime="0.00" timeLoss="91.09" rerouteNo="0" devices="tripinfo_flow_1025551194_SB.9" vType="car" speedFactor="1.09" vaporized=""/>
    <tripinfo id="flow_1025551194_EB.14" depart="410.00" departLane="88289922#6_0" departPos="5.10" departSpeed="0.00" departDelay="0.25" arrival="643.00" arrivalLane="1017920809#1_0" arrivalPos="585.48" arrivalSpeed="15.10" duration="233.00" routeLength="2799.10" waitingTime="30.00" waitingCount="2" stopTime="0.00" timeLoss="72.88" rerouteNo="0" devices="tripinfo_flow_1025551194_EB.14" vType="car" speedFactor="1.04" vaporized=""/>
    <tripinfo id="flow_1025551194_SB.1" depart="44.00" departLane="-88291250#0_0" departPos="5.10" departSpeed="0.00" departDelay="0.10" arrival="649.00" arrivalLane="-88291250#1_0" arrivalPos="133.72" arrivalSpeed="13.79" duration="605.00" routeLength="7844.71" waitingTime="23.00" waitingCount="1" stopTime="0.00" timeLoss="139.15" rerouteNo="0" devices="tripinfo_flow_1025551194_SB.1" vType="car" speedFactor="1.05" vaporized=""/>
    <tripinfo id="flow_1025551194_WB.22" depart="478.00" departLane="-88289922#7_0" departPos="5.10" departSpeed="0.00" departDelay="0.91" arrival="654.00" arrivalLane="-88289922#8_0" arrivalPos="172.17" arrivalSpeed="18.06" duration="176.00" routeLength="2245.03" waitingTime="26.00" waitingCount="1" stopTime="0.00" timeLoss="54.22" rerouteNo="0" devices="tripinfo_flow_1025551194_WB.22" vType="car" speedFactor="0.85" vaporized=""/>
    <tripinfo id="flow_1025551194_SB.6" depart="264.00" departLane="-88291250#0_0" departPos="5.10" departSpeed="0.00" departDelay="0.59" arrival="668.00" arrivalLane="88293117_0" arrivalPos="8.13" arrivalSpeed="11.78" duration="404.00" routeLength="4294.91" waitingTime="30.00" waitingCount="4" stopTime="0.00" timeLoss="114.16" rerouteNo="0" devices="tripinfo_flow_1025551194_SB.6" vType="car" speedFactor="0.93" vaporized=""/>
    <tripinfo id="flow_1025551194_WB.3" depart="66.00" departLane="-88289922#7_0" departPos="5.10" departSpeed="0.00" departDelay="0.94" arrival="671.00" arrivalLane="88293117_0" arrivalPos="8.13" arrivalSpeed="9.01" duration="605.00" routeLength="7825.30" waitingTime="5.00" waitingCount="2" stopTime="0.00" timeLoss="102.44" rerouteNo="0" devices="tripinfo_flow_1025551194_WB.3" vType="car" speedFactor="0.94" vaporized=""/>
    <tripinfo id="flow_1025551194_EB.7" depart="205.00" departLane="88289922#6_0" departPos="5.10" departSpeed="0.00" departDelay="0.12" arrival="674.00" arrivalLane="88289922#5_0" arrivalPos="140.79" arrivalSpeed="21.19" duration="469.00" routeLength="4980.11" waitingTime="93.00" waitingCount="2" stopTime="0.00" timeLoss="161.96" rerouteNo="0" devices="tripinfo_flow_1025551194_EB.7" vType="car" speedFactor="0.97" vaporized=""/>
    <tripinfo id="flow_1025551194_SB.13" depart="571.00" departLane="-88291250#0_0" departPos="5.10" departSpeed="0.00" departDelay="0.27" arrival="692.00" arrivalLane="1017920809#1_1" arrivalPos="585.48" arrivalSpeed="16.20" duration="121.00" routeLength="869.14" waitingTime="46.00" waitingCount="2" stopTime="0.00" timeLoss="71.38" rerouteNo="0" devices="tripinfo_flow_1025551194_SB.13" vType="car" speedFactor="1.08" vaporized=""/>
    <tripinfo id="flow_1025551194_WB.13" depart="285.00" departLane="-88289922#7_0" departPos="5.10" departSpeed="0.00" departDelay="3.08" arrival="694.00" arrivalLane="1017920809#1_1" arrivalPos="585.48" arrivalSpeed="18.42" duration="409.00" routeLength="5213.92" waitingTime="68.00" waitingCount="3" stopTime="0.00" timeLoss="147.99" rerouteNo="0" devices="tripinfo_flow_1025551194_WB.13" vType="car" speedFactor="1.18" vaporized=""/>
    <tripinfo id="flow_1025551194_WB.21" depart="456.00" departLane="-88289922#7_0" departPos="5.10" departSpeed="0.00" departDelay="0.59" arrival="694.00" arrivalLane="1017920809#1_0" arrivalPos="585.48" arrivalSpeed="13.09" duration="238.00" routeLength="3139.88" waitingTime="5.00" waitingCount="1" stopTime="0.00" timeLoss="43.76" rerouteNo="0" devices="tripinfo_flow_1025551194_WB.21" vType="car" speedFactor="0.88" vaporized=""/>
    <tripinfo id="flow_1025551194_EB.16" depart="469.00" departLane="88289922#6_0" departPos="5.10" departSpeed="0.00" departDelay="0.71" arrival="703.00" arrivalLane="218652277_0" arrivalPos="35.95" arrivalSpeed="16.06" duration="234.00" routeLength="2101.55" waitingTime="35.00" waitingCount="2" stopTime="0.00" timeLoss="71.48" rerouteNo="0" devices="tripinfo_flow_1025551194_EB.16" vType="car" speedFactor="0.85" vaporized=""/>
    <tripinfo id="flow_1025551194_WB.2" depart="44.00" departLane="-88289922#7_0" departPos="5.10" departSpeed="0.00" departDelay="0.63" arrival="711.00" arrivalLane="1017920809#1_0" arrivalPos="585.48" arrivalSpeed="12.73" duration="667.00" routeLength="6495.53" waitingTime="34.00" waitingCount="2" stopTime="0.00" timeLoss="130.66" rerouteNo="0" devices="tripinfo_flow_1025551194_WB.2" vType="car" speedFactor="0.83" vaporized=""/>
    <tripinfo id="flow_1025551194_SB.12" depart="530.00" departLane="-88291250#0_0" departPos="5.10" departSpeed="0.00" departDelay="3.18" arrival="717.00" arrivalLane="1017920809#1_0" arrivalPos="585.48" arrivalSpeed="13.03" duration="187.00" routeLength="2736.08" waitingTime="4.00" waitingCount="1" stopTime="0.00" timeLoss="32.13" rerouteNo="0" devices="tripinfo_flow_1025551194_SB.12" vType="car" speedFactor="0.90" vaporized=""/>
    <tripinfo id="flow_1025551194_EB.12" depart="352.00" departLane="88289922#6_0" departPos="5.10" departSpeed="0.00" departDelay="0.78" arrival="719.00" arrivalLane="88289922#5_0" arrivalPos="140.79" arrivalSpeed="25.57" duration="367.00" routeLength="6027.40" waitingTime="0.00" waitingCount="0" stopTime="0.00" timeLoss="71.89" rerouteNo="0" devices="tripinfo_flow_1025551194_EB.12" vType="car" speedFactor="1.18" vaporized=""/>
    <tripinfo id="flow_1025551194_WB.18" depart="391.00" departLane="-88289922#7_0" departPos="5.10" departSpeed="0.00" departDelay="0.65" arrival="721.00" arrivalLane="1017920809#1_1" arrivalPos="585.48" arrivalSpeed="14.02" duration="330.00" routeLength="3512.97" waitingTime="15.00" waitingCount="2" stopTime="0.00" timeLoss="82.11" rerouteNo="0" devices="tripinfo_flow_1025551194_WB.18" vType="car" speedFactor="0.96" vaporized=""/>
    <tripinfo id="flow_1025551194_WB.8" depart="174.00" departLane="-88289922#7_0" departPos="5.10" departSpeed="0.00" departDelay="0.51" arrival="722.00" arrivalLane="1017920809#1_0" arrivalPos="585.48" arrivalSpeed="14.16" duration="548.00" routeLength="6362.34" waitingTime="29.00" waitingCount="3" stopTime="0.00" timeLoss="112.43" rerouteNo="0" devices="tripinfo_flow_1025551194_WB.8" vType="car" speedFactor="0.94" vaporized=""/>
    <tripinfo id="flow_1025551194_EB.18" depart="529.00" departLane="88289922#6_0" departPos="5.10" departSpeed="0.00" departDelay="2.18" arrival="730.00" arrivalLane="1017920809#1_0" arrivalPos="585.48" arrivalSpeed="15.14" duration="201.00" routeLength="2727.67" waitingTime="0.00" waitingCount="0" stopTime="0.00" timeLoss="37.75" rerouteNo="0" devices="tripinfo_flow_1025551194_EB.18" vType="car" speedFactor="1.00" vaporized=""/>
    <tripinfo id="flow_1025551194_WB.23" depart="499.00" departLane="-88289922#7_0" departPos="5.10" departSpeed="0.00" departDelay="0.22" arrival="740.00" arrivalLane="-88289922#8_0" arrivalPos="172.17" arrivalSpeed="24.22" duration="241.00" routeLength="3579.27" waitingTime="21.00" waitingCount="1" stopTime="0.00" timeLoss="69.61" rerouteNo="0" devices="tripinfo_flow_1025551194_WB.23" vType="car" speedFactor="1.10" vaporized=""/>
    <tripinfo id="flow_1025551194_EB.19" depart="557.00" departLane="88289922#6_0" departPos="5.10" departSpeed="0.00" departDelay="0.91" arrival="740.00" arrivalLane="372292804_0" arrivalPos="27.68" arrivalSpeed="13.50" duration="183.00" routeLength="1646.64" waitingTime="29.00" waitingCount="3" stopTime="0.00" timeLoss="71.12" rerouteNo="0" devices="tripinfo_flow_1025551194_EB.19" vType="car" speedFactor="1.02" vaporized=""/>
    <tripinfo id="flow_1025551194_SB.15" depart="659.00" departLane="-88291250#0_0" departPos="5.10" departSpeed="0.00" departDelay="0.47" arrival="764.00" arrivalLane="-88291250#1_0" arrivalPos="133.72" arrivalSpeed="13.70" duration="105.00" routeLength="686.23" waitingTime="43.00" waitingCount="1" stopTime="0.00" timeLoss="63.23" rerouteNo="0" devices="tripinfo_flow_1025551194_SB.15" vType="car" speedFactor="1.02" vaporized=""/>
    <tripinfo id="flow_1025551194_EB.22" depart="651.00" departLane="88289922#6_0" departPos="5.10" departSpeed="0.00" departDelay="7.10" arrival="779.00" arrivalLane="218652277_0" arrivalPos="35.95" arrivalSpeed="17.62" duration="128.00" routeLength="1072.53" waitingTime="46.00" waitingCount="1" stopTime="0.00" timeLoss="63.19" rerouteNo="0" devices="tripinfo_flow_1025551194_EB.22" vType="car" speedFactor="0.91" vaporized=""/>
    <tripinfo id="flow_1025551194_EB.23" depart="674.00" departLane="88289922#6_0" departPos="5.10" departSpeed="0.00" departDelay="0.84" arrival="779.00" arrivalLane="1017920809#1_0" arrivalPos="585.48" arrivalSpeed="14.10" duration="105.00" routeLength="876.40" waitingTime="29.00" waitingCount="1" stopTime="0.00" timeLoss="50.16" rerouteNo="0" devices="tripinfo_flow_1025551194_EB.23" vType="car" speedFactor="0.97" vaporized=""/>
    <tripinfo id="flow_1025551194_SB.14" depart="615.00" departLane="-88291250#0_0" departPos="5.10" departSpeed="0.00" departDelay="0.37" arrival="780.00" arrivalLane="-88291250#1_0" arrivalPos="133.72" arrivalSpeed="11.57" duration="165.00" routeLength="1522.54" waitingTime="4.00" waitingCount="1" stopTime="0.00" timeLoss="45.61" rerouteNo="0" devices="tripinfo_flow_1025551194_SB.14" vType="car" speedFactor="0.88" vaporized=""/>
    <tripinfo id="flow_1025551194_WB.27" depart="586.00" departLane="-88289922#7_0" departPos="5.10" departSpeed="0.00" departDelay="0.48" arrival="788.00" arrivalLane="1017920809#1_0" arrivalPos="585.48" arrivalSpeed="15.26" duration="202.00" routeLength="2246.66" waitingTime="15.00" waitingCount="2" stopTime="0.00" timeLoss="64.83" rerouteNo="0" devices="tripinfo_flow_1025551194_WB.27" vType="car" speedFactor="1.02" vaporized=""/>
    <tripinfo id="flow_1025551194_SB.8" depart="352.00" departLane="-88291250#0_0" departPos="5.10" departSpeed="0.00" departDelay="0.78" arrival="789.00" arrivalLane="-88291250#1_0" arrivalPos="133.72" arrivalSpeed="14.63" duration="437.00" routeLength="6275.77" waitingTime="32.00" waitingCount="1" stopTime="0.00" timeLoss="113.97" rerouteNo="0" devices="tripinfo_flow_1025551194_SB.8" vType="car" speedFactor="1.10" vaporized=""/>
    <tripinfo id="flow_1025551194_EB.17" depart="498.00" departLane="88289922#6_0" departPos="5.10" departSpeed="0.00" departDelay="0.44" arrival="794.00" arrivalLane="218652269_0" arrivalPos="1694.32" arrivalSpeed="23.74" duration="296.00" routeLength="3973.83" waitingTime="38.00" waitingCount="2" stopTime="0.00" timeLoss="87.68" rerouteNo="0" devices="tripinfo_flow_1025551194_EB.17" vType="car" speedFactor="1.02" vaporized=""/>
    <tripinfo id="flow_1025551194_EB.21" depart="618.00" departLane="88289922#6_0" departPos="5.10" departSpeed="0.00" departDelay="3.37" arrival="813.00" arrivalLane="88293117_0" arrivalPos="8.13" arrivalSpeed="11.05" duration="195.00" routeLength="2041.11" waitingTime="2.00" waitingCount="1" stopTime="0.00" timeLoss="51.50" rerouteNo="0" devices="tripinfo_flow_1025551194_EB.21" vType="car" speedFactor="0.94" vaporized=""/>
    <tripinfo id="flow_1025551194_SB.7" depart="308.00" departLane="-88291250#0_0" departPos="5.10" departSpeed="0.00" departDelay="0.69" arrival="819.00" arrivalLane="88293117_0" arrivalPos="8.13" arrivalSpeed="13.15" duration="511.00" routeLength="6375.62" waitingTime="34.00" waitingCount="1" stopTime="0.00" timeLoss="142.10" rerouteNo="0" devices="tripinfo_flow_1025551194_SB.7" vType="car" speedFactor="1.17" vaporized=""/>
    <tripinfo id="flow_1025551194_WB.7" depart="152.00" departLane="-88289922#7_0" departPos="5.10" departSpeed="0.00" departDelay="0.20" arrival="828.00" arrivalLane="-88289922#8_0" arrivalPos="172.17" arrivalSpeed="20.65" duration="676.00" routeLength="7324.67" waitingTime="44.00" waitingCount="3" stopTime="0.00" timeLoss="175.62" rerouteNo="0" devices="tripinfo_flow_1025551194_WB.7" vType="car" speedFactor="0.94" vaporized=""/>
    <tripinfo id="flow_1025551194_EB.24" depart="703.00" departLane="88289922#6_0" departPos="5.10" departSpeed="0.00" departDelay="0.57" arrival="832.00" arrivalLane="88293117_0" arrivalPos="8.13" arrivalSpeed="13.11" duration="129.00" routeLength="1358.97" waitingTime="3.00" waitingCount="1" stopTime="0.00" timeLoss="43.30" rerouteNo="0" devices="tripinfo_flow_1025551194_EB.24" vType="car" speedFactor="1.06" vaporized=""/>
    <tripinfo id="flow_1025551194_WB.34" depart="740.00" departLane="-88289922#7_0" departPos="5.10" departSpeed="0.00" departDelay="2.68" arrival="840.00" arrivalLane="-88289922#8_0" arrivalPos="172.17" arrivalSpeed="21.07" duration="100.00" routeLength="995.73" waitingTime="21.00" waitingCount="1" stopTime="0.00" timeLoss="52.27" rerouteNo="0" devices="tripinfo_flow_1025551194_WB.34" vType="car" speedFactor="0.98" vaporized=""/>
    <tripinfo id="flow_1025551194_WB.29" depart="629.00" departLane="-88289922#7_0" departPos="5.10" departSpeed="0.00" departDelay="0.11" arrival="849.00" arrivalLane="-88289922#8_0" arrivalPos="172.17" arrivalSpeed="18.94" duration="220.00" routeLength="1997.83" waitingTime="23.00" waitingCount="2" stopTime="0.00" timeLoss="64.24" rerouteNo="0" devices="tripinfo_flow_1025551194_WB.29" vType="car" speedFactor="0.91" vaporized=""/>
    <tripinfo id="flow_1025551194_WB.15" depart="326.00" departLane="-88289922#7_0" departPos="5.10" departSpeed="0.00" departDelay="0.71" arrival="870.00" arrivalLane="1017920809#1_0" arrivalPos="585.48" arrivalSpeed="15.52" duration="544.00" routeLength="6632.14" waitingTime="40.00" waitingCount="3" stopTime="0.00" timeLoss="133.05" rerouteNo="0" devices="tripinfo_flow_1025551194_WB.15" vType="car" speedFactor="1.02" vaporized=""/>
    <tripinfo id="flow_1025551194_WB.25" depart="543.00" departLane="-88289922#7_0" departPos="5.10" departSpeed="0.00" departDelay="0.85" arrival="875.00" arrivalLane="1017920809#1_0" arrivalPos="585.48" arrivalSpeed="17.40" duration="332.00" routeLength="5546.99" waitingTime="1.00" waitingCount="1" stopTime="0.00" timeLoss="65.76" rerouteNo="0" devices="tripinfo_flow_1025551194_WB.25" vType="car" speedFactor="1.14" vaporized=""/>
    <tripinfo id="flow_1025551194_WB.28" depart="608.00" departLane="-88289922#7_0" departPos="5.10" departSpeed="0.00" departDelay="0.79" arrival="915.00" arrivalLane="372292804_0" arrivalPos="27.68" arrivalSpeed="13.57" duration="307.00" routeLength="3250.53" waitingTime="34.00" waitingCount="2" stopTime="0.00" timeLoss="101.62" rerouteNo="0" devices="tripinfo_flow_1025551194_WB.28" vType="car" speedFactor="0.99" vaporized=""/>
    <tripinfo id="flow_1025551194_WB.26" depart="569.00" departLane="-88289922#7_0" departPos="5.10" departSpeed="0.00" departDelay="5.16" arrival="916.00" arrivalLane="-773828749_0" arrivalPos="78.29" arrivalSpeed="12.54" duration="347.00" routeLength="3610.22" waitingTime="67.00" waitingCount="2" stopTime="0.00" timeLoss="131.48" rerouteNo="0" devices="tripinfo_flow_1025551194_WB.26" vType="car" speedFactor="0.97" vaporized=""/>
    <tripinfo id="flow_1025551194_EB.13" depart="381.00" departLane="88289922#6_0" departPos="5.10" departSpeed="0.00" departDelay="0.52" arrival="945.00" arrivalLane="88289922#5_0" arrivalPos="140.79" arrivalSpeed="20.51" duration="564.00" routeLength="6793.42" waitingTime="11.00" waitingCount="3" stopTime="0.00" timeLoss="139.69" rerouteNo="0" devices="tripinfo_flow_1025551194_EB.13" vType="car" speedFactor="1.03" vaporized=""/>
    <tripinfo id="flow_1025551194_EB.29" depart="849.00" departLane="88289922#6_0" departPos="5.10" departSpeed="0.00" departDelay="0.23" arrival="953.00" arrivalLane="88293117_0" arrivalPos="8.13" arrivalSpeed="11.95" duration="104.00" routeLength="694.67" waitingTime="44.00" waitingCount="2" stopTime="0.00" timeLoss="64.57" rerouteNo="0" devices="tripinfo_flow_1025551194_EB.29" vType="car" speedFactor="1.02" vaporized=""/>
    <tripinfo id="flow_1025551194_WB.35" depart="764.00" departLane="-88289922#7_0" departPos="5.10" departSpeed="0.00" departDelay="4.99" arrival="957.00" arrivalLane="-88289922#8_0" arrivalPos="172.17" arrivalSpeed="23.72" duration="193.00" routeLength="1894.29" waitingTime="55.00" waitingCount="2" stopTime="0.00" timeLoss="90.22" rerouteNo="0" devices="tripinfo_flow_1025551194_WB.35" vType="car" speedFactor="1.09" vaporized=""/>